MODEL 1
REMARK VINA RESULT:   -12.168      0.000      0.000
REMARK INTER + INTRA:         -16.518
REMARK INTER:                 -15.724
REMARK INTRA:                  -0.793
REMARK UNBOUND:                -0.793
REMARK  Name = CTX-1020799
REMARK  6 active torsions:
REMARK  status: ('A' for Active; 'I' for Inactive)
REMARK    1  A    between atoms: C_3  and  C_6
REMARK    2  A    between atoms: C_21  and  C_22
REMARK    3  A    between atoms: N_24  and  C_25
REMARK    4  A    between atoms: C_25  and  C_26
REMARK    5  A    between atoms: C_31  and  N_32
REMARK    6  A    between atoms: N_38  and  C_39
REMARK                            x       y       z     vdW  Elec       q    Type
REMARK                         _______ _______ _______ _____ _____    ______ ____
ROOT
ATOM      1  C   UNL     1      24.113   1.407 -21.184  0.00  0.00    +0.255 C 
ATOM      2  O   UNL     1      23.475   2.428 -20.915  0.00  0.00    -0.269 OA
ATOM      3  N   UNL     1      25.460   1.572 -21.764  0.00  0.00    -0.292 N 
ATOM      4  C   UNL     1      25.842   2.673 -22.860  0.00  0.00    +0.144 C 
ATOM      5  C   UNL     1      26.324   1.520 -20.616  0.00  0.00    +0.113 C 
ATOM      6  C   UNL     1      27.293   3.293 -22.724  0.00  0.00    -0.019 A 
ATOM      7  C   UNL     1      27.754   1.825 -20.811  0.00  0.00    +0.062 C 
ATOM      8  C   UNL     1      28.172   2.679 -21.888  0.00  0.00    -0.003 A 
ATOM      9  C   UNL     1      28.006   4.540 -23.149  0.00  0.00    +0.026 A 
ATOM     10  S   UNL     1      29.780   3.167 -21.995  0.00  0.00    -0.088 S 
ATOM     11  C   UNL     1      29.182   4.734 -22.388  0.00  0.00    +0.074 A 
ENDROOT
BRANCH   1  14
ATOM     12 CL   UNL     1      22.389   0.583 -18.301  0.00  0.00    -0.082 Cl
ATOM     13  C   UNL     1      22.801  -0.400 -19.659  0.00  0.00    +0.068 A 
ATOM     14  C   UNL     1      23.621   0.025 -20.731  0.00  0.00    +0.093 A 
ATOM     15  C   UNL     1      22.258  -1.798 -19.760  0.00  0.00    +0.008 A 
ATOM     16  S   UNL     1      23.951  -1.344 -21.712  0.00  0.00    -0.082 S 
ATOM     17  C   UNL     1      22.830  -2.377 -20.887  0.00  0.00    +0.021 A 
ATOM     18  C   UNL     1      21.275  -2.636 -18.978  0.00  0.00    +0.010 A 
ATOM     19  C   UNL     1      22.469  -3.678 -21.248  0.00  0.00    +0.016 A 
ATOM     20  C   UNL     1      20.861  -3.939 -19.341  0.00  0.00    +0.001 A 
ATOM     21  C   UNL     1      21.514  -4.380 -20.496  0.00  0.00    +0.001 A 
ENDBRANCH   1  14
BRANCH  11  22
ATOM     22  C   UNL     1      29.998   5.849 -21.881  0.00  0.00    +0.251 C 
ATOM     23  O   UNL     1      29.979   6.251 -20.724  0.00  0.00    -0.270 OA
ATOM     24  N   UNL     1      30.707   6.461 -22.895  0.00  0.00    -0.307 N 
ATOM     25  H   UNL     1      30.748   5.961 -23.743  0.00  0.00    +0.149 HD
BRANCH  24  26
ATOM     26  C   UNL     1      31.406   7.746 -22.891  0.00  0.00    +0.139 C 
BRANCH  26  27
ATOM     27  C   UNL     1      32.287   7.887 -24.095  0.00  0.00    -0.030 A 
ATOM     28  C   UNL     1      31.820   7.711 -25.403  0.00  0.00    +0.007 A 
ATOM     29  C   UNL     1      33.645   8.152 -23.899  0.00  0.00    +0.007 A 
ATOM     30  C   UNL     1      32.716   7.708 -26.476  0.00  0.00    +0.023 A 
ATOM     31  C   UNL     1      34.526   8.179 -24.979  0.00  0.00    +0.023 A 
ATOM     32  C   UNL     1      34.086   7.902 -26.277  0.00  0.00    +0.030 A 
BRANCH  32  33
ATOM     33  N   UNL     1      34.991   7.856 -27.354  0.00  0.00    -0.329 N 
ATOM     34  C   UNL     1      36.361   7.420 -27.336  0.00  0.00    +0.110 C 
ATOM     35  C   UNL     1      35.202   8.815 -28.418  0.00  0.00    +0.110 C 
ATOM     36  C   UNL     1      36.664   8.570 -28.242  0.00  0.00    -0.027 C 
ATOM     37  C   UNL     1      37.550   9.677 -27.735  0.00  0.00    -0.071 C 
ATOM     38  C   UNL     1      37.613   8.378 -29.386  0.00  0.00    -0.071 C 
ATOM     39  N   UNL     1      38.636   9.153 -28.618  0.00  0.00    +0.379 N 
ATOM     40  C   UNL     1      39.516   8.256 -27.863  0.00  0.00    -0.096 C 
ATOM     41  H   UNL     1      39.286   9.779 -29.093  0.00  0.00    -0.082 HD
ENDBRANCH  32  33
ENDBRANCH  26  27
ENDBRANCH  24  26
ENDBRANCH  11  22
TORSDOF 5
ENDMDL
MODEL 2
REMARK VINA RESULT:   -11.017      7.805     14.638
REMARK INTER + INTRA:         -15.031
REMARK INTER:                 -14.103
REMARK INTRA:                  -0.928
REMARK UNBOUND:                -0.793
REMARK  Name = CTX-1020799
REMARK  6 active torsions:
REMARK  status: ('A' for Active; 'I' for Inactive)
REMARK    1  A    between atoms: C_3  and  C_6
REMARK    2  A    between atoms: C_21  and  C_22
REMARK    3  A    between atoms: N_24  and  C_25
REMARK    4  A    between atoms: C_25  and  C_26
REMARK    5  A    between atoms: C_31  and  N_32
REMARK    6  A    between atoms: N_38  and  C_39
REMARK                            x       y       z     vdW  Elec       q    Type
REMARK                         _______ _______ _______ _____ _____    ______ ____
ROOT
ATOM      1  C   UNL     1      25.525   2.158 -24.365  0.00  0.00    +0.255 C 
ATOM      2  O   UNL     1      25.403   3.064 -23.536  0.00  0.00    -0.269 OA
ATOM      3  N   UNL     1      25.163   0.790 -23.944  0.00  0.00    -0.292 N 
ATOM      4  C   UNL     1      25.500   0.169 -22.509  0.00  0.00    +0.144 C 
ATOM      5  C   UNL     1      23.795   0.664 -24.365  0.00  0.00    +0.113 C 
ATOM      6  C   UNL     1      24.400  -0.804 -21.915  0.00  0.00    -0.019 A 
ATOM      7  C   UNL     1      23.050  -0.539 -23.948  0.00  0.00    +0.062 C 
ATOM      8  C   UNL     1      23.417  -1.238 -22.748  0.00  0.00    -0.003 A 
ATOM      9  C   UNL     1      23.987  -1.315 -20.569  0.00  0.00    +0.026 A 
ATOM     10  S   UNL     1      22.453  -2.498 -22.184  0.00  0.00    -0.088 S 
ATOM     11  C   UNL     1      22.675  -1.840 -20.608  0.00  0.00    +0.074 A 
ENDROOT
BRANCH   1  14
ATOM     12 CL   UNL     1      27.179   0.189 -26.678  0.00  0.00    -0.082 Cl
ATOM     13  C   UNL     1      26.364   1.695 -26.893  0.00  0.00    +0.068 A 
ATOM     14  C   UNL     1      25.827   2.469 -25.837  0.00  0.00    +0.093 A 
ATOM     15  C   UNL     1      26.172   2.248 -28.279  0.00  0.00    +0.008 A 
ATOM     16  S   UNL     1      25.337   3.978 -26.492  0.00  0.00    -0.082 S 
ATOM     17  C   UNL     1      25.585   3.501 -28.139  0.00  0.00    +0.021 A 
ATOM     18  C   UNL     1      26.430   1.760 -29.683  0.00  0.00    +0.010 A 
ATOM     19  C   UNL     1      25.255   4.234 -29.282  0.00  0.00    +0.016 A 
ATOM     20  C   UNL     1      26.071   2.462 -30.857  0.00  0.00    +0.001 A 
ATOM     21  C   UNL     1      25.485   3.695 -30.557  0.00  0.00    +0.001 A 
ENDBRANCH   1  14
BRANCH  11  22
ATOM     22  C   UNL     1      21.515  -1.981 -19.714  0.00  0.00    +0.251 C 
ATOM     23  O   UNL     1      21.299  -2.959 -19.008  0.00  0.00    -0.270 OA
ATOM     24  N   UNL     1      20.637  -0.924 -19.851  0.00  0.00    -0.307 N 
ATOM     25  H   UNL     1      20.989  -0.143 -20.337  0.00  0.00    +0.149 HD
BRANCH  24  26
ATOM     26  C   UNL     1      19.259  -0.798 -19.375  0.00  0.00    +0.139 C 
BRANCH  26  27
ATOM     27  C   UNL     1      19.198  -0.032 -18.089  0.00  0.00    -0.030 A 
ATOM     28  C   UNL     1      18.730   1.286 -18.011  0.00  0.00    +0.007 A 
ATOM     29  C   UNL     1      19.681  -0.640 -16.928  0.00  0.00    +0.007 A 
ATOM     30  C   UNL     1      18.834   2.001 -16.814  0.00  0.00    +0.023 A 
ATOM     31  C   UNL     1      19.751   0.071 -15.730  0.00  0.00    +0.023 A 
ATOM     32  C   UNL     1      19.383   1.418 -15.668  0.00  0.00    +0.030 A 
BRANCH  32  33
ATOM     33  N   UNL     1      19.526   2.153 -14.476  0.00  0.00    -0.329 N 
ATOM     34  C   UNL     1      18.865   3.378 -14.113  0.00  0.00    +0.110 C 
ATOM     35  C   UNL     1      20.723   2.454 -13.720  0.00  0.00    +0.110 C 
ATOM     36  C   UNL     1      20.172   3.829 -13.543  0.00  0.00    -0.027 C 
ATOM     37  C   UNL     1      20.871   5.001 -14.179  0.00  0.00    -0.071 C 
ATOM     38  C   UNL     1      20.192   4.567 -12.238  0.00  0.00    -0.071 C 
ATOM     39  N   UNL     1      20.474   5.825 -12.996  0.00  0.00    +0.379 N 
ATOM     40  C   UNL     1      19.236   6.556 -13.280  0.00  0.00    -0.096 C 
ATOM     41  H   UNL     1      21.091   6.541 -12.613  0.00  0.00    -0.082 HD
ENDBRANCH  32  33
ENDBRANCH  26  27
ENDBRANCH  24  26
ENDBRANCH  11  22
TORSDOF 5
ENDMDL
MODEL 3
REMARK VINA RESULT:   -10.841      3.227      4.798
REMARK INTER + INTRA:         -14.803
REMARK INTER:                 -13.978
REMARK INTRA:                  -0.825
REMARK UNBOUND:                -0.793
REMARK  Name = CTX-1020799
REMARK  6 active torsions:
REMARK  status: ('A' for Active; 'I' for Inactive)
REMARK    1  A    between atoms: C_3  and  C_6
REMARK    2  A    between atoms: C_21  and  C_22
REMARK    3  A    between atoms: N_24  and  C_25
REMARK    4  A    between atoms: C_25  and  C_26
REMARK    5  A    between atoms: C_31  and  N_32
REMARK    6  A    between atoms: N_38  and  C_39
REMARK                            x       y       z     vdW  Elec       q    Type
REMARK                         _______ _______ _______ _____ _____    ______ ____
ROOT
ATOM      1  C   UNL     1      22.958   1.185 -19.704  0.00  0.00    +0.255 C 
ATOM      2  O   UNL     1      23.075   1.897 -20.704  0.00  0.00    -0.269 OA
ATOM      3  N   UNL     1      24.041   1.225 -18.702  0.00  0.00    -0.292 N 
ATOM      4  C   UNL     1      25.599   1.288 -19.060  0.00  0.00    +0.144 C 
ATOM      5  C   UNL     1      23.586   2.209 -17.759  0.00  0.00    +0.113 C 
ATOM      6  C   UNL     1      26.487   2.159 -18.081  0.00  0.00    -0.019 A 
ATOM      7  C   UNL     1      24.516   2.633 -16.696  0.00  0.00    +0.062 C 
ATOM      8  C   UNL     1      25.936   2.554 -16.902  0.00  0.00    -0.003 A 
ATOM      9  C   UNL     1      27.804   2.873 -18.122  0.00  0.00    +0.026 A 
ATOM     10  S   UNL     1      26.986   3.205 -15.758  0.00  0.00    -0.088 S 
ATOM     11  C   UNL     1      27.894   3.828 -17.083  0.00  0.00    +0.074 A 
ENDROOT
BRANCH   1  14
ATOM     12 CL   UNL     1      22.312  -2.211 -19.814  0.00  0.00    -0.082 Cl
ATOM     13  C   UNL     1      21.305  -0.914 -19.283  0.00  0.00    +0.068 A 
ATOM     14  C   UNL     1      21.641   0.456 -19.402  0.00  0.00    +0.093 A 
ATOM     15  C   UNL     1      19.986  -1.213 -18.627  0.00  0.00    +0.008 A 
ATOM     16  S   UNL     1      20.256   1.374 -18.973  0.00  0.00    -0.082 S 
ATOM     17  C   UNL     1      19.357   0.006 -18.401  0.00  0.00    +0.021 A 
ATOM     18  C   UNL     1      19.265  -2.457 -18.166  0.00  0.00    +0.010 A 
ATOM     19  C   UNL     1      18.116   0.029 -17.760  0.00  0.00    +0.016 A 
ATOM     20  C   UNL     1      18.028  -2.462 -17.479  0.00  0.00    +0.001 A 
ATOM     21  C   UNL     1      17.527  -1.166 -17.319  0.00  0.00    +0.001 A 
ENDBRANCH   1  14
BRANCH  11  22
ATOM     22  C   UNL     1      28.529   5.133 -16.835  0.00  0.00    +0.251 C 
ATOM     23  O   UNL     1      28.022   6.037 -16.181  0.00  0.00    -0.270 OA
ATOM     24  N   UNL     1      29.719   5.256 -17.523  0.00  0.00    -0.307 N 
ATOM     25  H   UNL     1      30.082   4.418 -17.893  0.00  0.00    +0.149 HD
BRANCH  24  26
ATOM     26  C   UNL     1      30.519   6.454 -17.781  0.00  0.00    +0.139 C 
BRANCH  26  27
ATOM     27  C   UNL     1      31.035   6.468 -19.188  0.00  0.00    -0.030 A 
ATOM     28  C   UNL     1      32.401   6.481 -19.497  0.00  0.00    +0.007 A 
ATOM     29  C   UNL     1      30.111   6.526 -20.235  0.00  0.00    +0.007 A 
ATOM     30  C   UNL     1      32.822   6.643 -20.819  0.00  0.00    +0.023 A 
ATOM     31  C   UNL     1      30.542   6.655 -21.555  0.00  0.00    +0.023 A 
ATOM     32  C   UNL     1      31.900   6.773 -21.863  0.00  0.00    +0.030 A 
BRANCH  32  33
ATOM     33  N   UNL     1      32.327   6.979 -23.188  0.00  0.00    -0.329 N 
ATOM     34  C   UNL     1      33.656   6.831 -23.718  0.00  0.00    +0.110 C 
ATOM     35  C   UNL     1      31.961   8.025 -24.120  0.00  0.00    +0.110 C 
ATOM     36  C   UNL     1      33.400   8.073 -24.512  0.00  0.00    -0.027 C 
ATOM     37  C   UNL     1      34.214   9.303 -24.212  0.00  0.00    -0.071 C 
ATOM     38  C   UNL     1      33.867   8.149 -25.933  0.00  0.00    -0.071 C 
ATOM     39  N   UNL     1      34.960   9.068 -25.486  0.00  0.00    +0.379 N 
ATOM     40  C   UNL     1      36.195   8.324 -25.221  0.00  0.00    -0.096 C 
ATOM     41  H   UNL     1      35.269   9.841 -26.074  0.00  0.00    -0.082 HD
ENDBRANCH  32  33
ENDBRANCH  26  27
ENDBRANCH  24  26
ENDBRANCH  11  22
TORSDOF 5
ENDMDL
MODEL 4
REMARK VINA RESULT:   -10.658      1.522      2.176
REMARK INTER + INTRA:         -14.567
REMARK INTER:                 -13.698
REMARK INTRA:                  -0.869
REMARK UNBOUND:                -0.793
REMARK  Name = CTX-1020799
REMARK  6 active torsions:
REMARK  status: ('A' for Active; 'I' for Inactive)
REMARK    1  A    between atoms: C_3  and  C_6
REMARK    2  A    between atoms: C_21  and  C_22
REMARK    3  A    between atoms: N_24  and  C_25
REMARK    4  A    between atoms: C_25  and  C_26
REMARK    5  A    between atoms: C_31  and  N_32
REMARK    6  A    between atoms: N_38  and  C_39
REMARK                            x       y       z     vdW  Elec       q    Type
REMARK                         _______ _______ _______ _____ _____    ______ ____
ROOT
ATOM      1  C   UNL     1      23.291   1.138 -21.248  0.00  0.00    +0.255 C 
ATOM      2  O   UNL     1      22.788   2.216 -20.922  0.00  0.00    -0.269 OA
ATOM      3  N   UNL     1      24.657   1.159 -21.806  0.00  0.00    -0.292 N 
ATOM      4  C   UNL     1      25.197   2.262 -22.830  0.00  0.00    +0.144 C 
ATOM      5  C   UNL     1      25.488   0.924 -20.657  0.00  0.00    +0.113 C 
ATOM      6  C   UNL     1      26.714   2.677 -22.644  0.00  0.00    -0.019 A 
ATOM      7  C   UNL     1      26.949   1.049 -20.821  0.00  0.00    +0.062 C 
ATOM      8  C   UNL     1      27.493   1.904 -21.841  0.00  0.00    -0.003 A 
ATOM      9  C   UNL     1      27.592   3.842 -22.987  0.00  0.00    +0.026 A 
ATOM     10  S   UNL     1      29.152   2.181 -21.905  0.00  0.00    -0.088 S 
ATOM     11  C   UNL     1      28.771   3.833 -22.206  0.00  0.00    +0.074 A 
ENDROOT
BRANCH   1  14
ATOM     12 CL   UNL     1      22.946  -1.698 -23.198  0.00  0.00    -0.082 Cl
ATOM     13  C   UNL     1      22.538  -1.443 -21.541  0.00  0.00    +0.068 A 
ATOM     14  C   UNL     1      22.615  -0.191 -20.884  0.00  0.00    +0.093 A 
ATOM     15  C   UNL     1      22.087  -2.603 -20.697  0.00  0.00    +0.008 A 
ATOM     16  S   UNL     1      21.889  -0.366 -19.339  0.00  0.00    -0.082 S 
ATOM     17  C   UNL     1      21.735  -2.088 -19.454  0.00  0.00    +0.021 A 
ATOM     18  C   UNL     1      21.973  -4.096 -20.883  0.00  0.00    +0.010 A 
ATOM     19  C   UNL     1      21.310  -2.960 -18.447  0.00  0.00    +0.016 A 
ATOM     20  C   UNL     1      21.585  -5.005 -19.871  0.00  0.00    +0.001 A 
ATOM     21  C   UNL     1      21.272  -4.343 -18.680  0.00  0.00    +0.001 A 
ENDBRANCH   1  14
BRANCH  11  22
ATOM     22  C   UNL     1      29.718   4.799 -21.625  0.00  0.00    +0.251 C 
ATOM     23  O   UNL     1      30.271   4.660 -20.541  0.00  0.00    -0.270 OA
ATOM     24  N   UNL     1      29.821   5.936 -22.401  0.00  0.00    -0.307 N 
ATOM     25  H   UNL     1      29.441   5.866 -23.307  0.00  0.00    +0.149 HD
BRANCH  24  26
ATOM     26  C   UNL     1      30.415   7.232 -22.068  0.00  0.00    +0.139 C 
BRANCH  26  27
ATOM     27  C   UNL     1      31.665   7.473 -22.860  0.00  0.00    -0.030 A 
ATOM     28  C   UNL     1      32.917   7.667 -22.263  0.00  0.00    +0.007 A 
ATOM     29  C   UNL     1      31.565   7.564 -24.251  0.00  0.00    +0.007 A 
ATOM     30  C   UNL     1      34.018   8.035 -23.041  0.00  0.00    +0.023 A 
ATOM     31  C   UNL     1      32.677   7.900 -25.022  0.00  0.00    +0.023 A 
ATOM     32  C   UNL     1      33.906   8.196 -24.426  0.00  0.00    +0.030 A 
BRANCH  32  33
ATOM     33  N   UNL     1      35.007   8.608 -25.201  0.00  0.00    -0.329 N 
ATOM     34  C   UNL     1      34.987   9.222 -26.501  0.00  0.00    +0.110 C 
ATOM     35  C   UNL     1      36.276   7.948 -25.417  0.00  0.00    +0.110 C 
ATOM     36  C   UNL     1      36.156   8.356 -26.848  0.00  0.00    -0.027 C 
ATOM     37  C   UNL     1      35.986   7.304 -27.912  0.00  0.00    -0.071 C 
ATOM     38  C   UNL     1      37.290   8.929 -27.642  0.00  0.00    -0.071 C 
ATOM     39  N   UNL     1      36.800   8.160 -28.827  0.00  0.00    +0.379 N 
ATOM     40  C   UNL     1      35.923   8.986 -29.664  0.00  0.00    -0.096 C 
ATOM     41  H   UNL     1      37.454   7.754 -29.496  0.00  0.00    -0.082 HD
ENDBRANCH  32  33
ENDBRANCH  26  27
ENDBRANCH  24  26
ENDBRANCH  11  22
TORSDOF 5
ENDMDL
MODEL 5
REMARK VINA RESULT:   -10.211      3.970     13.910
REMARK INTER + INTRA:         -13.989
REMARK INTER:                 -13.151
REMARK INTRA:                  -0.838
REMARK UNBOUND:                -0.793
REMARK  Name = CTX-1020799
REMARK  6 active torsions:
REMARK  status: ('A' for Active; 'I' for Inactive)
REMARK    1  A    between atoms: C_3  and  C_6
REMARK    2  A    between atoms: C_21  and  C_22
REMARK    3  A    between atoms: N_24  and  C_25
REMARK    4  A    between atoms: C_25  and  C_26
REMARK    5  A    between atoms: C_31  and  N_32
REMARK    6  A    between atoms: N_38  and  C_39
REMARK                            x       y       z     vdW  Elec       q    Type
REMARK                         _______ _______ _______ _____ _____    ______ ____
ROOT
ATOM      1  C   UNL     1      33.568   8.229 -22.976  0.00  0.00    +0.255 C 
ATOM      2  O   UNL     1      33.290   9.352 -22.548  0.00  0.00    -0.269 OA
ATOM      3  N   UNL     1      33.177   7.066 -22.156  0.00  0.00    -0.292 N 
ATOM      4  C   UNL     1      33.291   7.006 -20.561  0.00  0.00    +0.144 C 
ATOM      5  C   UNL     1      31.899   6.692 -22.696  0.00  0.00    +0.113 C 
ATOM      6  C   UNL     1      32.135   6.213 -19.826  0.00  0.00    -0.019 A 
ATOM      7  C   UNL     1      31.126   5.651 -21.992  0.00  0.00    +0.062 C 
ATOM      8  C   UNL     1      31.311   5.440 -20.583  0.00  0.00    -0.003 A 
ATOM      9  C   UNL     1      31.522   6.166 -18.460  0.00  0.00    +0.026 A 
ATOM     10  S   UNL     1      30.300   4.379 -19.754  0.00  0.00    -0.088 S 
ATOM     11  C   UNL     1      30.247   5.556 -18.499  0.00  0.00    +0.074 A 
ENDROOT
BRANCH   1  14
ATOM     12 CL   UNL     1      31.761   7.936 -25.911  0.00  0.00    -0.082 Cl
ATOM     13  C   UNL     1      33.467   8.042 -25.672  0.00  0.00    +0.068 A 
ATOM     14  C   UNL     1      34.096   8.036 -24.404  0.00  0.00    +0.093 A 
ATOM     15  C   UNL     1      34.380   8.173 -26.859  0.00  0.00    +0.008 A 
ATOM     16  S   UNL     1      35.789   7.914 -24.661  0.00  0.00    -0.082 S 
ATOM     17  C   UNL     1      35.683   8.135 -26.377  0.00  0.00    +0.021 A 
ATOM     18  C   UNL     1      34.200   8.354 -28.347  0.00  0.00    +0.010 A 
ATOM     19  C   UNL     1      36.749   8.276 -27.270  0.00  0.00    +0.016 A 
ATOM     20  C   UNL     1      35.257   8.539 -29.268  0.00  0.00    +0.001 A 
ATOM     21  C   UNL     1      36.503   8.486 -28.635  0.00  0.00    +0.001 A 
ENDBRANCH   1  14
BRANCH  11  22
ATOM     22  C   UNL     1      28.961   5.639 -17.787  0.00  0.00    +0.251 C 
ATOM     23  O   UNL     1      28.444   6.683 -17.410  0.00  0.00    -0.270 OA
ATOM     24  N   UNL     1      28.461   4.385 -17.497  0.00  0.00    -0.307 N 
ATOM     25  H   UNL     1      28.892   3.638 -17.972  0.00  0.00    +0.149 HD
BRANCH  24  26
ATOM     26  C   UNL     1      27.382   4.008 -16.582  0.00  0.00    +0.139 C 
BRANCH  26  27
ATOM     27  C   UNL     1      26.432   3.049 -17.233  0.00  0.00    -0.030 A 
ATOM     28  C   UNL     1      26.748   2.338 -18.397  0.00  0.00    +0.007 A 
ATOM     29  C   UNL     1      25.156   2.901 -16.684  0.00  0.00    +0.007 A 
ATOM     30  C   UNL     1      25.773   1.572 -19.041  0.00  0.00    +0.023 A 
ATOM     31  C   UNL     1      24.198   2.109 -17.317  0.00  0.00    +0.023 A 
ATOM     32  C   UNL     1      24.473   1.478 -18.534  0.00  0.00    +0.030 A 
BRANCH  32  33
ATOM     33  N   UNL     1      23.481   0.741 -19.208  0.00  0.00    -0.329 N 
ATOM     34  C   UNL     1      23.434  -0.680 -19.423  0.00  0.00    +0.110 C 
ATOM     35  C   UNL     1      22.778   1.054 -20.434  0.00  0.00    +0.110 C 
ATOM     36  C   UNL     1      22.943  -0.382 -20.804  0.00  0.00    -0.027 C 
ATOM     37  C   UNL     1      23.811  -0.755 -21.976  0.00  0.00    -0.071 C 
ATOM     38  C   UNL     1      21.846  -1.216 -21.393  0.00  0.00    -0.071 C 
ATOM     39  N   UNL     1      22.867  -1.877 -22.264  0.00  0.00    +0.379 N 
ATOM     40  C   UNL     1      23.352  -3.119 -21.655  0.00  0.00    -0.096 C 
ATOM     41  H   UNL     1      22.641  -2.153 -23.220  0.00  0.00    -0.082 HD
ENDBRANCH  32  33
ENDBRANCH  26  27
ENDBRANCH  24  26
ENDBRANCH  11  22
TORSDOF 5
ENDMDL
