MODEL 1
REMARK VINA RESULT:   -12.364      0.000      0.000
REMARK INTER + INTRA:         -17.888
REMARK INTER:                 -16.701
REMARK INTRA:                  -1.187
REMARK UNBOUND:                -1.187
REMARK  Name = CTX-1020811
REMARK  8 active torsions:
REMARK  status: ('A' for Active; 'I' for Inactive)
REMARK    1  A    between atoms: C_2  and  C_4
REMARK    2  A    between atoms: N_3  and  C_5
REMARK    3  A    between atoms: C_5  and  C_8
REMARK    4  A    between atoms: C_19  and  N_22
REMARK    5  A    between atoms: C_21  and  C_24
REMARK    6  A    between atoms: C_28  and  C_33
REMARK    7  A    between atoms: C_33  and  C_37
REMARK    8  A    between atoms: N_34  and  C_38
REMARK                            x       y       z     vdW  Elec       q    Type
REMARK                         _______ _______ _______ _____ _____    ______ ____
ROOT
ATOM      1  C   UNL     1      28.744   5.096 -22.837  0.00  0.00    +0.126 A 
ATOM      2  N   UNL     1      28.472   3.927 -22.183  0.00  0.00    -0.245 NA
ATOM      3  C   UNL     1      28.122   5.490 -24.014  0.00  0.00    +0.033 A 
ATOM      4  C   UNL     1      27.540   3.102 -22.747  0.00  0.00    +0.063 A 
ATOM      5  C   UNL     1      27.159   4.656 -24.559  0.00  0.00    +0.008 A 
ATOM      6  C   UNL     1      26.861   3.442 -23.931  0.00  0.00    -0.023 A 
ATOM      7  C   UNL     1      27.278   1.752 -22.077  0.00  0.00    +0.163 C 
ATOM      8  C   UNL     1      25.759   2.579 -24.491  0.00  0.00    +0.056 C 
ATOM      9  N   UNL     1      26.025   1.133 -22.514  0.00  0.00    -0.289 N 
ATOM     10  C   UNL     1      25.772   1.156 -23.946  0.00  0.00    +0.113 C 
ATOM     11  C   UNL     1      25.282   0.340 -21.633  0.00  0.00    +0.283 C 
ATOM     12  O   UNL     1      25.813  -0.205 -20.664  0.00  0.00    -0.267 OA
ENDROOT
BRANCH  11  13
ATOM     13  C   UNL     1      23.819   0.417 -21.795  0.00  0.00    +0.194 A 
ATOM     14  O   UNL     1      23.280   1.633 -21.405  0.00  0.00    -0.450 OA
ATOM     15  C   UNL     1      22.835  -0.530 -21.506  0.00  0.00    +0.010 A 
ATOM     16  C   UNL     1      22.468   1.327 -20.363  0.00  0.00    +0.136 A 
ATOM     17  C   UNL     1      22.277  -0.042 -20.291  0.00  0.00    +0.024 A 
ATOM     18  C   UNL     1      21.934   2.247 -19.472  0.00  0.00    +0.047 A 
ATOM     19  C   UNL     1      21.542  -0.569 -19.220  0.00  0.00    +0.012 A 
ATOM     20  C   UNL     1      21.244   1.706 -18.390  0.00  0.00    +0.004 A 
ATOM     21  C   UNL     1      21.071   0.325 -18.248  0.00  0.00    +0.001 A 
BRANCH  15  22
ATOM     22  C   UNL     1      22.291  -1.658 -22.316  0.00  0.00    +0.036 C 
ATOM     23  C   UNL     1      23.015  -2.958 -21.915  0.00  0.00    +0.009 C 
ENDBRANCH  15  22
ENDBRANCH  11  13
BRANCH   1  25
ATOM     24  O   UNL     1      30.200   5.836 -21.114  0.00  0.00    -0.269 OA
ATOM     25  C   UNL     1      29.734   6.044 -22.228  0.00  0.00    +0.263 C 
ATOM     26  N   UNL     1      30.112   7.096 -23.026  0.00  0.00    -0.306 N 
ATOM     27  H   UNL     1      29.679   7.207 -23.903  0.00  0.00    +0.149 HD
BRANCH  26  28
ATOM     28  C   UNL     1      31.127   8.044 -22.621  0.00  0.00    +0.140 C 
BRANCH  28  29
ATOM     29  C   UNL     1      32.232   8.105 -23.646  0.00  0.00    -0.030 A 
ATOM     30  C   UNL     1      31.972   7.766 -24.967  0.00  0.00    +0.007 A 
ATOM     31  C   UNL     1      33.523   8.481 -23.285  0.00  0.00    +0.007 A 
ATOM     32  C   UNL     1      32.984   7.813 -25.925  0.00  0.00    +0.023 A 
ATOM     33  C   UNL     1      34.541   8.537 -24.250  0.00  0.00    +0.023 A 
ATOM     34  C   UNL     1      34.294   8.210 -25.589  0.00  0.00    +0.030 A 
BRANCH  34  35
ATOM     35  N   UNL     1      35.247   8.313 -26.586  0.00  0.00    -0.333 N 
ATOM     36  C   UNL     1      34.884   8.733 -27.947  0.00  0.00    +0.086 C 
ATOM     37  C   UNL     1      36.611   8.729 -26.207  0.00  0.00    +0.086 C 
ATOM     38  C   UNL     1      35.908   8.134 -28.941  0.00  0.00    -0.060 C 
ATOM     39  C   UNL     1      37.622   8.151 -27.226  0.00  0.00    -0.060 C 
ATOM     40  N   UNL     1      37.308   8.513 -28.631  0.00  0.00    +0.380 N 
ATOM     41  C   UNL     1      38.229   7.841 -29.546  0.00  0.00    -0.096 C 
ATOM     42  H   UNL     1      37.415   9.521 -28.750  0.00  0.00    -0.082 HD
ENDBRANCH  34  35
ENDBRANCH  28  29
ENDBRANCH  26  28
ENDBRANCH   1  25
TORSDOF 6
ENDMDL
MODEL 2
REMARK VINA RESULT:   -11.115      3.750      6.756
REMARK INTER + INTRA:         -16.200
REMARK INTER:                 -15.058
REMARK INTRA:                  -1.142
REMARK UNBOUND:                -1.187
REMARK  Name = CTX-1020811
REMARK  8 active torsions:
REMARK  status: ('A' for Active; 'I' for Inactive)
REMARK    1  A    between atoms: C_2  and  C_4
REMARK    2  A    between atoms: N_3  and  C_5
REMARK    3  A    between atoms: C_5  and  C_8
REMARK    4  A    between atoms: C_19  and  N_22
REMARK    5  A    between atoms: C_21  and  C_24
REMARK    6  A    between atoms: C_28  and  C_33
REMARK    7  A    between atoms: C_33  and  C_37
REMARK    8  A    between atoms: N_34  and  C_38
REMARK                            x       y       z     vdW  Elec       q    Type
REMARK                         _______ _______ _______ _____ _____    ______ ____
ROOT
ATOM      1  C   UNL     1      25.947   3.555 -16.095  0.00  0.00    +0.126 A 
ATOM      2  N   UNL     1      25.265   3.273 -17.246  0.00  0.00    -0.245 NA
ATOM      3  C   UNL     1      25.502   3.212 -14.825  0.00  0.00    +0.033 A 
ATOM      4  C   UNL     1      24.067   2.628 -17.116  0.00  0.00    +0.063 A 
ATOM      5  C   UNL     1      24.300   2.533 -14.712  0.00  0.00    +0.008 A 
ATOM      6  C   UNL     1      23.561   2.239 -15.864  0.00  0.00    -0.023 A 
ATOM      7  C   UNL     1      23.249   2.374 -18.384  0.00  0.00    +0.163 C 
ATOM      8  C   UNL     1      22.292   1.435 -15.734  0.00  0.00    +0.056 C 
ATOM      9  N   UNL     1      22.207   1.363 -18.195  0.00  0.00    -0.289 N 
ATOM     10  C   UNL     1      21.417   1.485 -16.980  0.00  0.00    +0.113 C 
ATOM     11  C   UNL     1      21.835   0.525 -19.251  0.00  0.00    +0.283 C 
ATOM     12  O   UNL     1      22.025   0.852 -20.423  0.00  0.00    -0.267 OA
ENDROOT
BRANCH  11  13
ATOM     13  C   UNL     1      21.452  -0.846 -18.864  0.00  0.00    +0.194 A 
ATOM     14  O   UNL     1      22.465  -1.776 -19.039  0.00  0.00    -0.450 OA
ATOM     15  C   UNL     1      20.267  -1.545 -19.101  0.00  0.00    +0.010 A 
ATOM     16  C   UNL     1      21.984  -2.632 -19.974  0.00  0.00    +0.136 A 
ATOM     17  C   UNL     1      20.629  -2.424 -20.161  0.00  0.00    +0.024 A 
ATOM     18  C   UNL     1      22.745  -3.557 -20.673  0.00  0.00    +0.047 A 
ATOM     19  C   UNL     1      19.963  -3.149 -21.159  0.00  0.00    +0.012 A 
ATOM     20  C   UNL     1      22.081  -4.238 -21.690  0.00  0.00    +0.004 A 
ATOM     21  C   UNL     1      20.723  -4.022 -21.949  0.00  0.00    +0.001 A 
BRANCH  15  22
ATOM     22  C   UNL     1      18.984  -1.586 -18.342  0.00  0.00    +0.036 C 
ATOM     23  C   UNL     1      19.296  -1.647 -16.834  0.00  0.00    +0.009 C 
ENDBRANCH  15  22
ENDBRANCH  11  13
BRANCH   1  25
ATOM     24  O   UNL     1      27.388   5.441 -16.058  0.00  0.00    -0.269 OA
ATOM     25  C   UNL     1      27.282   4.228 -16.200  0.00  0.00    +0.263 C 
ATOM     26  N   UNL     1      28.353   3.391 -16.397  0.00  0.00    -0.306 N 
ATOM     27  H   UNL     1      28.187   2.428 -16.521  0.00  0.00    +0.149 HD
BRANCH  26  28
ATOM     28  C   UNL     1      29.715   3.875 -16.427  0.00  0.00    +0.140 C 
BRANCH  28  29
ATOM     29  C   UNL     1      30.010   4.545 -17.746  0.00  0.00    -0.030 A 
ATOM     30  C   UNL     1      29.798   3.858 -18.935  0.00  0.00    +0.007 A 
ATOM     31  C   UNL     1      30.510   5.843 -17.794  0.00  0.00    +0.007 A 
ATOM     32  C   UNL     1      30.070   4.463 -20.162  0.00  0.00    +0.023 A 
ATOM     33  C   UNL     1      30.776   6.455 -19.028  0.00  0.00    +0.023 A 
ATOM     34  C   UNL     1      30.558   5.783 -20.237  0.00  0.00    +0.030 A 
BRANCH  34  35
ATOM     35  N   UNL     1      30.742   6.367 -21.477  0.00  0.00    -0.333 N 
ATOM     36  C   UNL     1      29.758   6.193 -22.555  0.00  0.00    +0.086 C 
ATOM     37  C   UNL     1      31.430   7.671 -21.539  0.00  0.00    +0.086 C 
ATOM     38  C   UNL     1      30.481   6.338 -23.915  0.00  0.00    -0.060 C 
ATOM     39  C   UNL     1      32.122   7.817 -22.916  0.00  0.00    -0.060 C 
ATOM     40  N   UNL     1      31.194   7.630 -24.059  0.00  0.00    +0.380 N 
ATOM     41  C   UNL     1      31.932   7.664 -25.321  0.00  0.00    -0.096 C 
ATOM     42  H   UNL     1      30.512   8.389 -24.066  0.00  0.00    -0.082 HD
ENDBRANCH  34  35
ENDBRANCH  28  29
ENDBRANCH  26  28
ENDBRANCH   1  25
TORSDOF 6
ENDMDL
MODEL 3
REMARK VINA RESULT:   -10.953      3.866      6.376
REMARK INTER + INTRA:         -15.982
REMARK INTER:                 -15.777
REMARK INTRA:                  -0.205
REMARK UNBOUND:                -1.187
REMARK  Name = CTX-1020811
REMARK  8 active torsions:
REMARK  status: ('A' for Active; 'I' for Inactive)
REMARK    1  A    between atoms: C_2  and  C_4
REMARK    2  A    between atoms: N_3  and  C_5
REMARK    3  A    between atoms: C_5  and  C_8
REMARK    4  A    between atoms: C_19  and  N_22
REMARK    5  A    between atoms: C_21  and  C_24
REMARK    6  A    between atoms: C_28  and  C_33
REMARK    7  A    between atoms: C_33  and  C_37
REMARK    8  A    between atoms: N_34  and  C_38
REMARK                            x       y       z     vdW  Elec       q    Type
REMARK                         _______ _______ _______ _____ _____    ______ ____
ROOT
ATOM      1  C   UNL     1      25.663   1.369 -18.054  0.00  0.00    +0.126 A 
ATOM      2  N   UNL     1      25.513   0.439 -19.045  0.00  0.00    -0.245 NA
ATOM      3  C   UNL     1      24.607   2.053 -17.465  0.00  0.00    +0.033 A 
ATOM      4  C   UNL     1      24.240   0.195 -19.480  0.00  0.00    +0.063 A 
ATOM      5  C   UNL     1      23.321   1.773 -17.897  0.00  0.00    +0.008 A 
ATOM      6  C   UNL     1      23.124   0.841 -18.921  0.00  0.00    -0.023 A 
ATOM      7  C   UNL     1      24.056  -0.781 -20.644  0.00  0.00    +0.163 C 
ATOM      8  C   UNL     1      21.716   0.491 -19.330  0.00  0.00    +0.056 C 
ATOM      9  N   UNL     1      22.679  -1.262 -20.771  0.00  0.00    -0.289 N 
ATOM     10  C   UNL     1      21.641  -0.248 -20.661  0.00  0.00    +0.113 C 
ATOM     11  C   UNL     1      22.420  -2.553 -21.241  0.00  0.00    +0.283 C 
ATOM     12  O   UNL     1      23.239  -3.154 -21.938  0.00  0.00    -0.267 OA
ENDROOT
BRANCH  11  13
ATOM     13  C   UNL     1      21.249  -3.220 -20.642  0.00  0.00    +0.194 A 
ATOM     14  O   UNL     1      20.045  -2.599 -20.937  0.00  0.00    -0.450 OA
ATOM     15  C   UNL     1      21.081  -3.758 -19.365  0.00  0.00    +0.010 A 
ATOM     16  C   UNL     1      19.572  -2.184 -19.736  0.00  0.00    +0.136 A 
ATOM     17  C   UNL     1      20.292  -2.770 -18.710  0.00  0.00    +0.024 A 
ATOM     18  C   UNL     1      18.541  -1.273 -19.558  0.00  0.00    +0.047 A 
ATOM     19  C   UNL     1      20.018  -2.394 -17.388  0.00  0.00    +0.012 A 
ATOM     20  C   UNL     1      18.309  -0.876 -18.244  0.00  0.00    +0.004 A 
ATOM     21  C   UNL     1      19.048  -1.402 -17.179  0.00  0.00    +0.001 A 
BRANCH  15  22
ATOM     22  C   UNL     1      21.410  -5.105 -18.817  0.00  0.00    +0.036 C 
ATOM     23  C   UNL     1      21.404  -6.129 -19.969  0.00  0.00    +0.009 C 
ENDBRANCH  15  22
ENDBRANCH  11  13
BRANCH   1  25
ATOM     24  O   UNL     1      27.882   0.747 -17.485  0.00  0.00    -0.269 OA
ATOM     25  C   UNL     1      27.040   1.636 -17.525  0.00  0.00    +0.263 C 
ATOM     26  N   UNL     1      27.291   2.936 -17.161  0.00  0.00    -0.306 N 
ATOM     27  H   UNL     1      26.558   3.592 -17.203  0.00  0.00    +0.149 HD
BRANCH  26  28
ATOM     28  C   UNL     1      28.597   3.375 -16.720  0.00  0.00    +0.140 C 
BRANCH  28  29
ATOM     29  C   UNL     1      29.285   4.162 -17.809  0.00  0.00    -0.030 A 
ATOM     30  C   UNL     1      29.649   5.483 -17.584  0.00  0.00    +0.007 A 
ATOM     31  C   UNL     1      29.549   3.587 -19.049  0.00  0.00    +0.007 A 
ATOM     32  C   UNL     1      30.282   6.224 -18.582  0.00  0.00    +0.023 A 
ATOM     33  C   UNL     1      30.192   4.330 -20.051  0.00  0.00    +0.023 A 
ATOM     34  C   UNL     1      30.577   5.660 -19.839  0.00  0.00    +0.030 A 
BRANCH  34  35
ATOM     35  N   UNL     1      31.272   6.409 -20.771  0.00  0.00    -0.333 N 
ATOM     36  C   UNL     1      32.691   6.148 -21.054  0.00  0.00    +0.086 C 
ATOM     37  C   UNL     1      30.540   6.910 -21.950  0.00  0.00    +0.086 C 
ATOM     38  C   UNL     1      33.345   7.457 -21.558  0.00  0.00    -0.060 C 
ATOM     39  C   UNL     1      31.223   8.201 -22.463  0.00  0.00    -0.060 C 
ATOM     40  N   UNL     1      32.669   8.023 -22.749  0.00  0.00    +0.380 N 
ATOM     41  C   UNL     1      33.274   9.302 -23.115  0.00  0.00    -0.096 C 
ATOM     42  H   UNL     1      32.779   7.380 -23.534  0.00  0.00    -0.082 HD
ENDBRANCH  34  35
ENDBRANCH  28  29
ENDBRANCH  26  28
ENDBRANCH   1  25
TORSDOF 6
ENDMDL
MODEL 4
REMARK VINA RESULT:   -10.586      4.009      6.710
REMARK INTER + INTRA:         -15.486
REMARK INTER:                 -14.487
REMARK INTRA:                  -1.000
REMARK UNBOUND:                -1.187
REMARK  Name = CTX-1020811
REMARK  8 active torsions:
REMARK  status: ('A' for Active; 'I' for Inactive)
REMARK    1  A    between atoms: C_2  and  C_4
REMARK    2  A    between atoms: N_3  and  C_5
REMARK    3  A    between atoms: C_5  and  C_8
REMARK    4  A    between atoms: C_19  and  N_22
REMARK    5  A    between atoms: C_21  and  C_24
REMARK    6  A    between atoms: C_28  and  C_33
REMARK    7  A    between atoms: C_33  and  C_37
REMARK    8  A    between atoms: N_34  and  C_38
REMARK                            x       y       z     vdW  Elec       q    Type
REMARK                         _______ _______ _______ _____ _____    ______ ____
ROOT
ATOM      1  C   UNL     1      24.167   0.407 -23.420  0.00  0.00    +0.126 A 
ATOM      2  N   UNL     1      24.146   0.810 -22.114  0.00  0.00    -0.245 NA
ATOM      3  C   UNL     1      23.473  -0.695 -23.903  0.00  0.00    +0.033 A 
ATOM      4  C   UNL     1      23.403   0.061 -21.244  0.00  0.00    +0.063 A 
ATOM      5  C   UNL     1      22.703  -1.427 -23.015  0.00  0.00    +0.008 A 
ATOM      6  C   UNL     1      22.666  -1.059 -21.666  0.00  0.00    -0.023 A 
ATOM      7  C   UNL     1      23.430   0.446 -19.764  0.00  0.00    +0.163 C 
ATOM      8  C   UNL     1      21.766  -1.819 -20.725  0.00  0.00    +0.056 C 
ATOM      9  N   UNL     1      22.332  -0.151 -19.001  0.00  0.00    -0.289 N 
ATOM     10  C   UNL     1      22.076  -1.560 -19.255  0.00  0.00    +0.113 C 
ATOM     11  C   UNL     1      21.773   0.529 -17.915  0.00  0.00    +0.283 C 
ATOM     12  O   UNL     1      22.408   1.394 -17.309  0.00  0.00    -0.267 OA
ENDROOT
BRANCH  11  13
ATOM     13  C   UNL     1      20.325   0.329 -17.722  0.00  0.00    +0.194 A 
ATOM     14  O   UNL     1      19.615   1.510 -17.580  0.00  0.00    -0.450 OA
ATOM     15  C   UNL     1      19.648  -0.603 -16.933  0.00  0.00    +0.010 A 
ATOM     16  C   UNL     1      19.102   1.452 -16.326  0.00  0.00    +0.136 A 
ATOM     17  C   UNL     1      19.236   0.173 -15.813  0.00  0.00    +0.024 A 
ATOM     18  C   UNL     1      18.557   2.526 -15.637  0.00  0.00    +0.047 A 
ATOM     19  C   UNL     1      18.851  -0.070 -14.488  0.00  0.00    +0.012 A 
ATOM     20  C   UNL     1      18.221   2.281 -14.308  0.00  0.00    +0.004 A 
ATOM     21  C   UNL     1      18.387   1.017 -13.732  0.00  0.00    +0.001 A 
BRANCH  15  22
ATOM     22  C   UNL     1      19.223  -2.004 -17.217  0.00  0.00    +0.036 C 
ATOM     23  C   UNL     1      17.697  -2.030 -17.437  0.00  0.00    +0.009 C 
ENDBRANCH  15  22
ENDBRANCH  11  13
BRANCH   1  25
ATOM     24  O   UNL     1      25.107   0.831 -25.558  0.00  0.00    -0.269 OA
ATOM     25  C   UNL     1      24.939   1.226 -24.410  0.00  0.00    +0.263 C 
ATOM     26  N   UNL     1      25.374   2.447 -23.956  0.00  0.00    -0.306 N 
ATOM     27  H   UNL     1      25.218   2.686 -23.014  0.00  0.00    +0.149 HD
BRANCH  26  28
ATOM     28  C   UNL     1      26.051   3.392 -24.817  0.00  0.00    +0.140 C 
BRANCH  28  29
ATOM     29  C   UNL     1      27.183   4.063 -24.077  0.00  0.00    -0.030 A 
ATOM     30  C   UNL     1      27.924   3.346 -23.147  0.00  0.00    +0.007 A 
ATOM     31  C   UNL     1      27.489   5.403 -24.301  0.00  0.00    +0.007 A 
ATOM     32  C   UNL     1      28.970   3.954 -22.453  0.00  0.00    +0.023 A 
ATOM     33  C   UNL     1      28.547   6.012 -23.609  0.00  0.00    +0.023 A 
ATOM     34  C   UNL     1      29.313   5.303 -22.675  0.00  0.00    +0.030 A 
BRANCH  34  35
ATOM     35  N   UNL     1      30.404   5.842 -22.019  0.00  0.00    -0.333 N 
ATOM     36  C   UNL     1      31.470   6.535 -22.757  0.00  0.00    +0.086 C 
ATOM     37  C   UNL     1      30.205   6.385 -20.662  0.00  0.00    +0.086 C 
ATOM     38  C   UNL     1      32.786   6.421 -21.950  0.00  0.00    -0.060 C 
ATOM     39  C   UNL     1      31.536   6.295 -19.877  0.00  0.00    -0.060 C 
ATOM     40  N   UNL     1      32.670   6.955 -20.572  0.00  0.00    +0.380 N 
ATOM     41  C   UNL     1      33.913   6.732 -19.835  0.00  0.00    -0.096 C 
ATOM     42  H   UNL     1      32.498   7.960 -20.615  0.00  0.00    -0.082 HD
ENDBRANCH  34  35
ENDBRANCH  28  29
ENDBRANCH  26  28
ENDBRANCH   1  25
TORSDOF 6
ENDMDL
MODEL 5
REMARK VINA RESULT:   -10.299      3.855      6.700
REMARK INTER + INTRA:         -15.098
REMARK INTER:                 -14.762
REMARK INTRA:                  -0.336
REMARK UNBOUND:                -1.187
REMARK  Name = CTX-1020811
REMARK  8 active torsions:
REMARK  status: ('A' for Active; 'I' for Inactive)
REMARK    1  A    between atoms: C_2  and  C_4
REMARK    2  A    between atoms: N_3  and  C_5
REMARK    3  A    between atoms: C_5  and  C_8
REMARK    4  A    between atoms: C_19  and  N_22
REMARK    5  A    between atoms: C_21  and  C_24
REMARK    6  A    between atoms: C_28  and  C_33
REMARK    7  A    between atoms: C_33  and  C_37
REMARK    8  A    between atoms: N_34  and  C_38
REMARK                            x       y       z     vdW  Elec       q    Type
REMARK                         _______ _______ _______ _____ _____    ______ ____
ROOT
ATOM      1  C   UNL     1      25.201   2.586 -16.519  0.00  0.00    +0.126 A 
ATOM      2  N   UNL     1      24.945   1.842 -17.636  0.00  0.00    -0.245 NA
ATOM      3  C   UNL     1      24.217   3.169 -15.731  0.00  0.00    +0.033 A 
ATOM      4  C   UNL     1      23.634   1.687 -17.991  0.00  0.00    +0.063 A 
ATOM      5  C   UNL     1      22.892   2.979 -16.088  0.00  0.00    +0.008 A 
ATOM      6  C   UNL     1      22.585   2.238 -17.234  0.00  0.00    -0.023 A 
ATOM      7  C   UNL     1      23.327   0.927 -19.283  0.00  0.00    +0.163 C 
ATOM      8  C   UNL     1      21.139   1.976 -17.571  0.00  0.00    +0.056 C 
ATOM      9  N   UNL     1      21.933   0.488 -19.367  0.00  0.00    -0.289 N 
ATOM     10  C   UNL     1      20.933   1.477 -18.995  0.00  0.00    +0.113 C 
ATOM     11  C   UNL     1      21.603  -0.702 -20.025  0.00  0.00    +0.283 C 
ATOM     12  O   UNL     1      22.344  -1.181 -20.884  0.00  0.00    -0.267 OA
ENDROOT
BRANCH  11  13
ATOM     13  C   UNL     1      20.472  -1.450 -19.447  0.00  0.00    +0.194 A 
ATOM     14  O   UNL     1      19.248  -0.823 -19.613  0.00  0.00    -0.450 OA
ATOM     15  C   UNL     1      20.375  -2.127 -18.230  0.00  0.00    +0.010 A 
ATOM     16  C   UNL     1      18.830  -0.550 -18.352  0.00  0.00    +0.136 A 
ATOM     17  C   UNL     1      19.609  -1.231 -17.433  0.00  0.00    +0.024 A 
ATOM     18  C   UNL     1      17.799   0.318 -18.025  0.00  0.00    +0.047 A 
ATOM     19  C   UNL     1      19.397  -1.006 -16.066  0.00  0.00    +0.012 A 
ATOM     20  C   UNL     1      17.628   0.565 -16.665  0.00  0.00    +0.004 A 
ATOM     21  C   UNL     1      18.426  -0.061 -15.702  0.00  0.00    +0.001 A 
BRANCH  15  22
ATOM     22  C   UNL     1      20.748  -3.520 -17.850  0.00  0.00    +0.036 C 
ATOM     23  C   UNL     1      20.908  -4.363 -19.131  0.00  0.00    +0.009 C 
ENDBRANCH  15  22
ENDBRANCH  11  13
BRANCH   1  25
ATOM     24  O   UNL     1      27.226   1.821 -15.544  0.00  0.00    -0.269 OA
ATOM     25  C   UNL     1      26.625   2.747 -16.076  0.00  0.00    +0.263 C 
ATOM     26  N   UNL     1      27.202   3.958 -16.368  0.00  0.00    -0.306 N 
ATOM     27  H   UNL     1      26.649   4.661 -16.781  0.00  0.00    +0.149 HD
BRANCH  26  28
ATOM     28  C   UNL     1      28.594   4.236 -16.091  0.00  0.00    +0.140 C 
BRANCH  28  29
ATOM     29  C   UNL     1      29.285   4.757 -17.327  0.00  0.00    -0.030 A 
ATOM     30  C   UNL     1      29.443   3.932 -18.433  0.00  0.00    +0.007 A 
ATOM     31  C   UNL     1      29.786   6.055 -17.373  0.00  0.00    +0.007 A 
ATOM     32  C   UNL     1      30.083   4.398 -19.580  0.00  0.00    +0.023 A 
ATOM     33  C   UNL     1      30.423   6.527 -18.531  0.00  0.00    +0.023 A 
ATOM     34  C   UNL     1      30.582   5.714 -19.660  0.00  0.00    +0.030 A 
BRANCH  34  35
ATOM     35  N   UNL     1      31.142   6.156 -20.844  0.00  0.00    -0.333 N 
ATOM     36  C   UNL     1      32.517   6.674 -20.889  0.00  0.00    +0.086 C 
ATOM     37  C   UNL     1      30.744   5.487 -22.097  0.00  0.00    +0.086 C 
ATOM     38  C   UNL     1      32.635   7.666 -22.071  0.00  0.00    -0.060 C 
ATOM     39  C   UNL     1      30.897   6.480 -23.275  0.00  0.00    -0.060 C 
ATOM     40  N   UNL     1      32.257   7.066 -23.373  0.00  0.00    +0.380 N 
ATOM     41  C   UNL     1      32.298   8.077 -24.428  0.00  0.00    -0.096 C 
ATOM     42  H   UNL     1      32.924   6.330 -23.608  0.00  0.00    -0.082 HD
ENDBRANCH  34  35
ENDBRANCH  28  29
ENDBRANCH  26  28
ENDBRANCH   1  25
TORSDOF 6
ENDMDL
