REMARK  Name = CTX-1020912
REMARK  7 active torsions:
REMARK  status: ('A' for Active; 'I' for Inactive)
REMARK    1  A    between atoms: C_2  and  C_4
REMARK    2  A    between atoms: C_5  and  C_10
REMARK    3  A    between atoms: C_18  and  C_20
REMARK    4  A    between atoms: N_23  and  C_24
REMARK    5  A    between atoms: C_24  and  C_25
REMARK    6  A    between atoms: C_30  and  N_31
REMARK    7  A    between atoms: N_36  and  C_37
REMARK                            x       y       z     vdW  Elec       q    Type
REMARK                         _______ _______ _______ _____ _____    ______ ____
ROOT
ATOM      1  C   UNL     1       7.974   4.203   1.818  0.00  0.00    -0.009 A 
ATOM      2  C   UNL     1       8.768   3.000   1.773  0.00  0.00    +0.037 A 
ATOM      3  C   UNL     1       7.602   4.672   0.577  0.00  0.00    +0.010 A 
ATOM      4  C   UNL     1       8.894   2.231   0.547  0.00  0.00    +0.072 A 
ATOM      5  C   UNL     1       7.323   3.755  -0.401  0.00  0.00    +0.010 A 
ATOM      6  N   UNL     1       9.855   1.357  -0.025  0.00  0.00    -0.242 NA
ATOM      7  C   UNL     1       7.795   2.469  -0.253  0.00  0.00    +0.000 A 
ATOM      8  C   UNL     1       9.584   0.854  -1.296  0.00  0.00    +0.126 A 
ATOM      9  C   UNL     1       7.337   1.517  -1.130  0.00  0.00    +0.012 A 
ATOM     10  C   UNL     1       8.314   0.902  -1.851  0.00  0.00    +0.033 A 
ENDROOT
BRANCH   1  12
ATOM     11  S   UNL     1       8.094   4.859   4.562  0.00  0.00    -0.088 S 
ATOM     12  C   UNL     1       7.396   4.958   2.996  0.00  0.00    +0.023 A 
ATOM     13  C   UNL     1       6.901   5.871   5.303  0.00  0.00    +0.020 A 
ATOM     14  C   UNL     1       6.244   5.782   3.042  0.00  0.00    -0.028 A 
ATOM     15  C   UNL     1       5.963   6.302   4.370  0.00  0.00    -0.007 A 
ATOM     16  C   UNL     1       6.791   6.261   6.658  0.00  0.00    +0.015 A 
ATOM     17  C   UNL     1       5.280   6.160   1.942  0.00  0.00    +0.045 C 
ATOM     18  C   UNL     1       4.896   7.141   4.816  0.00  0.00    +0.009 A 
ATOM     19  C   UNL     1       5.720   7.073   7.066  0.00  0.00    +0.001 A 
ATOM     20  C   UNL     1       4.777   7.516   6.154  0.00  0.00    +0.001 A 
ENDBRANCH   1  12
BRANCH   8  21
ATOM     21  C   UNL     1      10.582   0.258  -2.268  0.00  0.00    +0.263 C 
ATOM     22  O   UNL     1      10.131  -0.436  -3.199  0.00  0.00    -0.269 OA
ATOM     23  N   UNL     1      11.923   0.583  -2.269  0.00  0.00    -0.306 N 
ATOM     24  H   UNL     1      12.316   1.130  -1.550  0.00  0.00    +0.149 HD
BRANCH  23  25
ATOM     25  C   UNL     1      12.742   0.088  -3.377  0.00  0.00    +0.140 C 
BRANCH  25  26
ATOM     26  C   UNL     1      14.086   0.749  -3.554  0.00  0.00    -0.030 A 
ATOM     27  C   UNL     1      15.245   0.178  -3.029  0.00  0.00    +0.007 A 
ATOM     28  C   UNL     1      14.235   1.907  -4.322  0.00  0.00    +0.007 A 
ATOM     29  C   UNL     1      16.505   0.776  -3.232  0.00  0.00    +0.023 A 
ATOM     30  C   UNL     1      15.504   2.490  -4.526  0.00  0.00    +0.023 A 
ATOM     31  C   UNL     1      16.681   1.958  -3.973  0.00  0.00    +0.030 A 
BRANCH  31  32
ATOM     32  N   UNL     1      17.923   2.590  -4.069  0.00  0.00    -0.333 N 
ATOM     33  C   UNL     1      19.173   1.796  -4.123  0.00  0.00    +0.086 C 
ATOM     34  C   UNL     1      18.072   3.889  -4.761  0.00  0.00    +0.086 C 
ATOM     35  C   UNL     1      20.364   2.617  -3.561  0.00  0.00    -0.060 C 
ATOM     36  C   UNL     1      19.289   4.673  -4.201  0.00  0.00    -0.060 C 
ATOM     37  N   UNL     1      20.559   3.909  -4.254  0.00  0.00    +0.380 N 
ATOM     38  C   UNL     1      21.643   4.674  -3.634  0.00  0.00    -0.096 C 
ATOM     39  H   UNL     1      20.819   3.738  -5.226  0.00  0.00    -0.082 HD
ENDBRANCH  31  32
ENDBRANCH  25  26
ENDBRANCH  23  25
ENDBRANCH   8  21
TORSDOF 5
