MODEL 1
REMARK VINA RESULT:   -12.594      0.000      0.000
REMARK INTER + INTRA:         -17.817
REMARK INTER:                 -17.011
REMARK INTRA:                  -0.806
REMARK UNBOUND:                -0.806
REMARK  Name = CTX-1020816
REMARK  8 active torsions:
REMARK  status: ('A' for Active; 'I' for Inactive)
REMARK    1  A    between atoms: C_2  and  C_4
REMARK    2  A    between atoms: N_9  and  C_12
REMARK    3  A    between atoms: C_12  and  C_14
REMARK    4  A    between atoms: C_15  and  C_19
REMARK    5  A    between atoms: C_23  and  C_27
REMARK    6  A    between atoms: C_24  and  N_28
REMARK    7  A    between atoms: C_29  and  C_33
REMARK    8  A    between atoms: N_39  and  C_40
REMARK                            x       y       z     vdW  Elec       q    Type
REMARK                         _______ _______ _______ _____ _____    ______ ____
ROOT
ATOM      1  S   UNL     1      28.098   4.890 -24.131  0.00  0.00    -0.088 S 
ATOM      2  C   UNL     1      29.044   4.697 -22.713  0.00  0.00    +0.074 A 
ATOM      3  C   UNL     1      27.140   3.536 -23.751  0.00  0.00    -0.003 A 
ATOM      4  C   UNL     1      28.632   3.595 -21.987  0.00  0.00    +0.026 A 
ATOM      5  C   UNL     1      27.538   2.912 -22.587  0.00  0.00    -0.019 A 
ATOM      6  C   UNL     1      25.952   3.114 -24.554  0.00  0.00    +0.062 C 
ATOM      7  C   UNL     1      26.855   1.716 -22.014  0.00  0.00    +0.144 C 
ATOM      8  C   UNL     1      25.466   1.735 -24.079  0.00  0.00    +0.113 C 
ATOM      9  N   UNL     1      25.552   1.547 -22.617  0.00  0.00    -0.290 N 
ATOM     10  C   UNL     1      24.484   0.929 -21.982  0.00  0.00    +0.283 C 
ATOM     11  O   UNL     1      23.385   0.935 -22.550  0.00  0.00    -0.267 OA
ENDROOT
BRANCH  10  12
ATOM     12  C   UNL     1      24.618   0.258 -20.663  0.00  0.00    +0.194 A 
ATOM     13  O   UNL     1      24.354  -1.106 -20.810  0.00  0.00    -0.449 OA
ATOM     14  C   UNL     1      24.086   0.556 -19.397  0.00  0.00    +0.008 A 
ATOM     15  C   UNL     1      23.101  -1.246 -20.290  0.00  0.00    +0.153 A 
ATOM     16  C   UNL     1      22.879  -0.211 -19.391  0.00  0.00    +0.025 A 
ATOM     17  C   UNL     1      24.497   1.492 -18.319  0.00  0.00    +0.048 C 
ATOM     18  C   UNL     1      22.155  -2.203 -20.630  0.00  0.00    +0.095 A 
ATOM     19  C   UNL     1      21.644  -0.144 -18.731  0.00  0.00    +0.012 A 
ATOM     20  C   UNL     1      20.886  -2.040 -20.074  0.00  0.00    +0.022 A 
ATOM     21  C   UNL     1      20.633  -1.028 -19.139  0.00  0.00    +0.002 A 
BRANCH  18  22
ATOM     22  C   UNL     1      22.473  -3.222 -21.572  0.00  0.00    +0.103 C 
ATOM     23  N   UNL     1      22.706  -4.061 -22.337  0.00  0.00    -0.191 NA
ENDBRANCH  18  22
ENDBRANCH  10  12
BRANCH   2  24
ATOM     24  C   UNL     1      30.131   5.588 -22.334  0.00  0.00    +0.251 C 
ATOM     25  O   UNL     1      31.118   5.182 -21.722  0.00  0.00    -0.270 OA
ATOM     26  N   UNL     1      30.003   6.906 -22.702  0.00  0.00    -0.307 N 
ATOM     27  H   UNL     1      29.187   7.191 -23.174  0.00  0.00    +0.149 HD
BRANCH  26  28
ATOM     28  C   UNL     1      31.025   7.887 -22.420  0.00  0.00    +0.139 C 
BRANCH  28  29
ATOM     29  C   UNL     1      32.035   7.969 -23.532  0.00  0.00    -0.030 A 
ATOM     30  C   UNL     1      33.369   8.272 -23.248  0.00  0.00    +0.007 A 
ATOM     31  C   UNL     1      31.682   7.692 -24.858  0.00  0.00    +0.007 A 
ATOM     32  C   UNL     1      34.310   8.330 -24.276  0.00  0.00    +0.023 A 
ATOM     33  C   UNL     1      32.639   7.742 -25.884  0.00  0.00    +0.023 A 
ATOM     34  C   UNL     1      33.967   8.084 -25.615  0.00  0.00    +0.030 A 
BRANCH  34  35
ATOM     35  N   UNL     1      34.963   8.162 -26.579  0.00  0.00    -0.333 N 
ATOM     36  C   UNL     1      34.686   8.637 -27.943  0.00  0.00    +0.086 C 
ATOM     37  C   UNL     1      36.286   8.604 -26.090  0.00  0.00    +0.086 C 
ATOM     38  C   UNL     1      35.811   8.128 -28.887  0.00  0.00    -0.060 C 
ATOM     39  C   UNL     1      37.378   8.082 -27.046  0.00  0.00    -0.060 C 
ATOM     40  N   UNL     1      37.167   8.533 -28.441  0.00  0.00    +0.380 N 
ATOM     41  C   UNL     1      38.192   7.968 -29.315  0.00  0.00    -0.096 C 
ATOM     42  H   UNL     1      37.241   9.549 -28.487  0.00  0.00    -0.082 HD
ENDBRANCH  34  35
ENDBRANCH  28  29
ENDBRANCH  26  28
ENDBRANCH   2  24
TORSDOF 6
ENDMDL
MODEL 2
REMARK VINA RESULT:   -11.163      4.318      6.826
REMARK INTER + INTRA:         -15.884
REMARK INTER:                 -15.412
REMARK INTRA:                  -0.472
REMARK UNBOUND:                -0.806
REMARK  Name = CTX-1020816
REMARK  8 active torsions:
REMARK  status: ('A' for Active; 'I' for Inactive)
REMARK    1  A    between atoms: C_2  and  C_4
REMARK    2  A    between atoms: N_9  and  C_12
REMARK    3  A    between atoms: C_12  and  C_14
REMARK    4  A    between atoms: C_15  and  C_19
REMARK    5  A    between atoms: C_23  and  C_27
REMARK    6  A    between atoms: C_24  and  N_28
REMARK    7  A    between atoms: C_29  and  C_33
REMARK    8  A    between atoms: N_39  and  C_40
REMARK                            x       y       z     vdW  Elec       q    Type
REMARK                         _______ _______ _______ _____ _____    ______ ____
ROOT
ATOM      1  S   UNL     1      25.433   2.814 -14.423  0.00  0.00    -0.088 S 
ATOM      2  C   UNL     1      26.118   2.688 -15.990  0.00  0.00    +0.074 A 
ATOM      3  C   UNL     1      23.850   2.797 -15.045  0.00  0.00    -0.003 A 
ATOM      4  C   UNL     1      25.134   2.659 -16.961  0.00  0.00    +0.026 A 
ATOM      5  C   UNL     1      23.820   2.733 -16.423  0.00  0.00    -0.019 A 
ATOM      6  C   UNL     1      22.626   2.780 -14.187  0.00  0.00    +0.062 C 
ATOM      7  C   UNL     1      22.562   2.681 -17.221  0.00  0.00    +0.144 C 
ATOM      8  C   UNL     1      21.378   3.007 -15.057  0.00  0.00    +0.113 C 
ATOM      9  N   UNL     1      21.443   2.340 -16.372  0.00  0.00    -0.290 N 
ATOM     10  C   UNL     1      20.301   1.694 -16.825  0.00  0.00    +0.283 C 
ATOM     11  O   UNL     1      19.453   1.355 -15.991  0.00  0.00    -0.267 OA
ENDROOT
BRANCH  10  12
ATOM     12  C   UNL     1      20.061   1.411 -18.264  0.00  0.00    +0.194 A 
ATOM     13  O   UNL     1      19.137   0.369 -18.382  0.00  0.00    -0.449 OA
ATOM     14  C   UNL     1      20.939   1.189 -19.339  0.00  0.00    +0.008 A 
ATOM     15  C   UNL     1      19.909  -0.703 -18.725  0.00  0.00    +0.153 A 
ATOM     16  C   UNL     1      21.068  -0.235 -19.330  0.00  0.00    +0.025 A 
ATOM     17  C   UNL     1      21.697   2.101 -20.234  0.00  0.00    +0.048 C 
ATOM     18  C   UNL     1      19.647  -2.041 -18.465  0.00  0.00    +0.095 A 
ATOM     19  C   UNL     1      22.024  -1.165 -19.766  0.00  0.00    +0.012 A 
ATOM     20  C   UNL     1      20.668  -2.940 -18.774  0.00  0.00    +0.022 A 
ATOM     21  C   UNL     1      21.838  -2.510 -19.415  0.00  0.00    +0.002 A 
BRANCH  18  22
ATOM     22  C   UNL     1      18.432  -2.423 -17.828  0.00  0.00    +0.103 C 
ATOM     23  N   UNL     1      17.438  -2.751 -17.331  0.00  0.00    -0.191 NA
ENDBRANCH  18  22
ENDBRANCH  10  12
BRANCH   2  24
ATOM     24  C   UNL     1      27.549   2.617 -16.248  0.00  0.00    +0.251 C 
ATOM     25  O   UNL     1      28.092   1.573 -16.605  0.00  0.00    -0.270 OA
ATOM     26  N   UNL     1      28.263   3.779 -16.080  0.00  0.00    -0.307 N 
ATOM     27  H   UNL     1      27.791   4.587 -15.773  0.00  0.00    +0.149 HD
BRANCH  26  28
ATOM     28  C   UNL     1      29.682   3.856 -16.338  0.00  0.00    +0.139 C 
BRANCH  28  29
ATOM     29  C   UNL     1      29.970   4.502 -17.665  0.00  0.00    -0.030 A 
ATOM     30  C   UNL     1      29.746   3.800 -18.852  0.00  0.00    +0.007 A 
ATOM     31  C   UNL     1      30.412   5.828 -17.748  0.00  0.00    +0.007 A 
ATOM     32  C   UNL     1      29.996   4.405 -20.084  0.00  0.00    +0.023 A 
ATOM     33  C   UNL     1      30.650   6.432 -18.993  0.00  0.00    +0.023 A 
ATOM     34  C   UNL     1      30.468   5.724 -20.184  0.00  0.00    +0.030 A 
BRANCH  34  35
ATOM     35  N   UNL     1      30.691   6.252 -21.448  0.00  0.00    -0.333 N 
ATOM     36  C   UNL     1      29.724   6.078 -22.542  0.00  0.00    +0.086 C 
ATOM     37  C   UNL     1      31.333   7.583 -21.476  0.00  0.00    +0.086 C 
ATOM     38  C   UNL     1      30.455   6.299 -23.895  0.00  0.00    -0.060 C 
ATOM     39  C   UNL     1      32.050   7.769 -22.829  0.00  0.00    -0.060 C 
ATOM     40  N   UNL     1      31.130   7.618 -23.980  0.00  0.00    +0.380 N 
ATOM     41  C   UNL     1      31.866   7.747 -25.235  0.00  0.00    -0.096 C 
ATOM     42  H   UNL     1      30.424   8.354 -23.952  0.00  0.00    -0.082 HD
ENDBRANCH  34  35
ENDBRANCH  28  29
ENDBRANCH  26  28
ENDBRANCH   2  24
TORSDOF 6
ENDMDL
MODEL 3
REMARK VINA RESULT:   -10.846      3.518      5.774
REMARK INTER + INTRA:         -15.456
REMARK INTER:                 -14.660
REMARK INTRA:                  -0.797
REMARK UNBOUND:                -0.806
REMARK  Name = CTX-1020816
REMARK  8 active torsions:
REMARK  status: ('A' for Active; 'I' for Inactive)
REMARK    1  A    between atoms: C_2  and  C_4
REMARK    2  A    between atoms: N_9  and  C_12
REMARK    3  A    between atoms: C_12  and  C_14
REMARK    4  A    between atoms: C_15  and  C_19
REMARK    5  A    between atoms: C_23  and  C_27
REMARK    6  A    between atoms: C_24  and  N_28
REMARK    7  A    between atoms: C_29  and  C_33
REMARK    8  A    between atoms: N_39  and  C_40
REMARK                            x       y       z     vdW  Elec       q    Type
REMARK                         _______ _______ _______ _____ _____    ______ ____
ROOT
ATOM      1  S   UNL     1      25.156   2.717 -15.199  0.00  0.00    -0.088 S 
ATOM      2  C   UNL     1      26.363   2.886 -16.405  0.00  0.00    +0.074 A 
ATOM      3  C   UNL     1      24.010   2.174 -16.333  0.00  0.00    -0.003 A 
ATOM      4  C   UNL     1      25.869   2.550 -17.653  0.00  0.00    +0.026 A 
ATOM      5  C   UNL     1      24.505   2.149 -17.620  0.00  0.00    -0.019 A 
ATOM      6  C   UNL     1      22.639   1.708 -15.962  0.00  0.00    +0.062 C 
ATOM      7  C   UNL     1      23.717   1.692 -18.800  0.00  0.00    +0.144 C 
ATOM      8  C   UNL     1      21.793   1.517 -17.232  0.00  0.00    +0.113 C 
ATOM      9  N   UNL     1      22.549   0.957 -18.369  0.00  0.00    -0.290 N 
ATOM     10  C   UNL     1      21.934  -0.028 -19.129  0.00  0.00    +0.283 C 
ATOM     11  O   UNL     1      21.007  -0.666 -18.617  0.00  0.00    -0.267 OA
ENDROOT
BRANCH  10  12
ATOM     12  C   UNL     1      22.342  -0.329 -20.526  0.00  0.00    +0.194 A 
ATOM     13  O   UNL     1      21.232  -0.787 -21.242  0.00  0.00    -0.449 OA
ATOM     14  C   UNL     1      23.402  -1.084 -21.056  0.00  0.00    +0.008 A 
ATOM     15  C   UNL     1      21.442  -2.133 -21.328  0.00  0.00    +0.153 A 
ATOM     16  C   UNL     1      22.805  -2.374 -21.209  0.00  0.00    +0.025 A 
ATOM     17  C   UNL     1      24.834  -0.780 -21.311  0.00  0.00    +0.048 C 
ATOM     18  C   UNL     1      20.479  -3.125 -21.443  0.00  0.00    +0.095 A 
ATOM     19  C   UNL     1      23.262  -3.699 -21.263  0.00  0.00    +0.012 A 
ATOM     20  C   UNL     1      20.935  -4.440 -21.351  0.00  0.00    +0.022 A 
ATOM     21  C   UNL     1      22.304  -4.724 -21.264  0.00  0.00    +0.002 A 
BRANCH  18  22
ATOM     22  C   UNL     1      19.102  -2.778 -21.550  0.00  0.00    +0.103 C 
ATOM     23  N   UNL     1      17.975  -2.514 -21.616  0.00  0.00    -0.191 NA
ENDBRANCH  18  22
ENDBRANCH  10  12
BRANCH   2  24
ATOM     24  C   UNL     1      27.726   3.322 -16.137  0.00  0.00    +0.251 C 
ATOM     25  O   UNL     1      28.237   3.203 -15.025  0.00  0.00    -0.270 OA
ATOM     26  N   UNL     1      28.416   3.867 -17.193  0.00  0.00    -0.307 N 
ATOM     27  H   UNL     1      27.961   3.961 -18.061  0.00  0.00    +0.149 HD
BRANCH  26  28
ATOM     28  C   UNL     1      29.788   4.306 -17.072  0.00  0.00    +0.139 C 
BRANCH  28  29
ATOM     29  C   UNL     1      30.285   4.926 -18.349  0.00  0.00    -0.030 A 
ATOM     30  C   UNL     1      30.045   4.300 -19.574  0.00  0.00    +0.007 A 
ATOM     31  C   UNL     1      30.945   6.161 -18.348  0.00  0.00    +0.007 A 
ATOM     32  C   UNL     1      30.490   4.885 -20.761  0.00  0.00    +0.023 A 
ATOM     33  C   UNL     1      31.379   6.746 -19.549  0.00  0.00    +0.023 A 
ATOM     34  C   UNL     1      31.180   6.108 -20.775  0.00  0.00    +0.030 A 
BRANCH  34  35
ATOM     35  N   UNL     1      31.589   6.622 -21.998  0.00  0.00    -0.333 N 
ATOM     36  C   UNL     1      30.623   7.089 -23.004  0.00  0.00    +0.086 C 
ATOM     37  C   UNL     1      32.806   7.459 -21.960  0.00  0.00    +0.086 C 
ATOM     38  C   UNL     1      31.317   7.101 -24.395  0.00  0.00    -0.060 C 
ATOM     39  C   UNL     1      33.470   7.448 -23.352  0.00  0.00    -0.060 C 
ATOM     40  N   UNL     1      32.555   7.920 -24.417  0.00  0.00    +0.380 N 
ATOM     41  C   UNL     1      33.210   7.838 -25.719  0.00  0.00    -0.096 C 
ATOM     42  H   UNL     1      32.309   8.896 -24.250  0.00  0.00    -0.082 HD
ENDBRANCH  34  35
ENDBRANCH  28  29
ENDBRANCH  26  28
ENDBRANCH   2  24
TORSDOF 6
ENDMDL
MODEL 4
REMARK VINA RESULT:   -10.430      4.479     15.464
REMARK INTER + INTRA:         -14.893
REMARK INTER:                 -14.548
REMARK INTRA:                  -0.345
REMARK UNBOUND:                -0.806
REMARK  Name = CTX-1020816
REMARK  8 active torsions:
REMARK  status: ('A' for Active; 'I' for Inactive)
REMARK    1  A    between atoms: C_2  and  C_4
REMARK    2  A    between atoms: N_9  and  C_12
REMARK    3  A    between atoms: C_12  and  C_14
REMARK    4  A    between atoms: C_15  and  C_19
REMARK    5  A    between atoms: C_23  and  C_27
REMARK    6  A    between atoms: C_24  and  N_28
REMARK    7  A    between atoms: C_29  and  C_33
REMARK    8  A    between atoms: N_39  and  C_40
REMARK                            x       y       z     vdW  Elec       q    Type
REMARK                         _______ _______ _______ _____ _____    ______ ____
ROOT
ATOM      1  S   UNL     1      33.539   7.996 -26.351  0.00  0.00    -0.088 S 
ATOM      2  C   UNL     1      34.303   8.266 -24.839  0.00  0.00    +0.074 A 
ATOM      3  C   UNL     1      34.992   8.249 -27.200  0.00  0.00    -0.003 A 
ATOM      4  C   UNL     1      35.642   8.567 -25.005  0.00  0.00    +0.026 A 
ATOM      5  C   UNL     1      36.045   8.571 -26.369  0.00  0.00    -0.019 A 
ATOM      6  C   UNL     1      35.125   8.072 -28.678  0.00  0.00    +0.062 C 
ATOM      7  C   UNL     1      37.433   8.821 -26.853  0.00  0.00    +0.144 C 
ATOM      8  C   UNL     1      36.489   8.607 -29.145  0.00  0.00    +0.113 C 
ATOM      9  N   UNL     1      37.590   8.327 -28.203  0.00  0.00    -0.290 N 
ATOM     10  C   UNL     1      38.801   7.903 -28.732  0.00  0.00    +0.283 C 
ATOM     11  O   UNL     1      38.799   7.400 -29.862  0.00  0.00    -0.267 OA
ENDROOT
BRANCH  10  12
ATOM     12  C   UNL     1      40.086   8.045 -28.000  0.00  0.00    +0.194 A 
ATOM     13  O   UNL     1      40.021   9.164 -27.165  0.00  0.00    -0.449 OA
ATOM     14  C   UNL     1      41.423   8.045 -28.436  0.00  0.00    +0.008 A 
ATOM     15  C   UNL     1      40.768  10.097 -27.823  0.00  0.00    +0.153 A 
ATOM     16  C   UNL     1      41.669   9.437 -28.648  0.00  0.00    +0.025 A 
ATOM     17  C   UNL     1      42.384   6.958 -28.755  0.00  0.00    +0.048 C 
ATOM     18  C   UNL     1      40.631  11.476 -27.759  0.00  0.00    +0.095 A 
ATOM     19  C   UNL     1      42.546  10.199 -29.434  0.00  0.00    +0.012 A 
ATOM     20  C   UNL     1      41.410  12.215 -28.650  0.00  0.00    +0.022 A 
ATOM     21  C   UNL     1      42.353  11.588 -29.474  0.00  0.00    +0.002 A 
BRANCH  18  22
ATOM     22  C   UNL     1      39.668  12.061 -26.887  0.00  0.00    +0.103 C 
ATOM     23  N   UNL     1      38.885  12.514 -26.163  0.00  0.00    -0.191 NA
ENDBRANCH  18  22
ENDBRANCH  10  12
BRANCH   2  24
ATOM     24  C   UNL     1      33.619   8.181 -23.556  0.00  0.00    +0.251 C 
ATOM     25  O   UNL     1      33.563   9.138 -22.787  0.00  0.00    -0.270 OA
ATOM     26  N   UNL     1      33.033   6.976 -23.251  0.00  0.00    -0.307 N 
ATOM     27  H   UNL     1      33.120   6.230 -23.888  0.00  0.00    +0.149 HD
BRANCH  26  28
ATOM     28  C   UNL     1      32.292   6.767 -22.028  0.00  0.00    +0.139 C 
BRANCH  28  29
ATOM     29  C   UNL     1      31.110   5.863 -22.245  0.00  0.00    -0.030 A 
ATOM     30  C   UNL     1      30.204   6.124 -23.275  0.00  0.00    +0.007 A 
ATOM     31  C   UNL     1      30.918   4.717 -21.462  0.00  0.00    +0.007 A 
ATOM     32  C   UNL     1      29.117   5.275 -23.487  0.00  0.00    +0.023 A 
ATOM     33  C   UNL     1      29.827   3.863 -21.691  0.00  0.00    +0.023 A 
ATOM     34  C   UNL     1      28.894   4.139 -22.693  0.00  0.00    +0.030 A 
BRANCH  34  35
ATOM     35  N   UNL     1      27.788   3.346 -22.970  0.00  0.00    -0.333 N 
ATOM     36  C   UNL     1      27.186   2.475 -21.950  0.00  0.00    +0.086 C 
ATOM     37  C   UNL     1      26.775   3.956 -23.855  0.00  0.00    +0.086 C 
ATOM     38  C   UNL     1      26.354   1.372 -22.662  0.00  0.00    -0.060 C 
ATOM     39  C   UNL     1      25.970   2.837 -24.547  0.00  0.00    -0.060 C 
ATOM     40  N   UNL     1      25.322   1.925 -23.576  0.00  0.00    +0.380 N 
ATOM     41  C   UNL     1      24.621   0.853 -24.279  0.00  0.00    -0.096 C 
ATOM     42  H   UNL     1      24.636   2.442 -23.026  0.00  0.00    -0.082 HD
ENDBRANCH  34  35
ENDBRANCH  28  29
ENDBRANCH  26  28
ENDBRANCH   2  24
TORSDOF 6
ENDMDL
MODEL 5
REMARK VINA RESULT:   -10.093      3.609      6.652
REMARK INTER + INTRA:         -14.439
REMARK INTER:                 -15.680
REMARK INTRA:                   1.241
REMARK UNBOUND:                -0.806
REMARK  Name = CTX-1020816
REMARK  8 active torsions:
REMARK  status: ('A' for Active; 'I' for Inactive)
REMARK    1  A    between atoms: C_2  and  C_4
REMARK    2  A    between atoms: N_9  and  C_12
REMARK    3  A    between atoms: C_12  and  C_14
REMARK    4  A    between atoms: C_15  and  C_19
REMARK    5  A    between atoms: C_23  and  C_27
REMARK    6  A    between atoms: C_24  and  N_28
REMARK    7  A    between atoms: C_29  and  C_33
REMARK    8  A    between atoms: N_39  and  C_40
REMARK                            x       y       z     vdW  Elec       q    Type
REMARK                         _______ _______ _______ _____ _____    ______ ____
ROOT
ATOM      1  S   UNL     1      23.207   3.097 -15.962  0.00  0.00    -0.088 S 
ATOM      2  C   UNL     1      24.828   2.889 -16.480  0.00  0.00    +0.074 A 
ATOM      3  C   UNL     1      22.623   2.038 -17.159  0.00  0.00    -0.003 A 
ATOM      4  C   UNL     1      24.898   2.038 -17.568  0.00  0.00    +0.026 A 
ATOM      5  C   UNL     1      23.625   1.551 -17.973  0.00  0.00    -0.019 A 
ATOM      6  C   UNL     1      21.191   1.626 -17.269  0.00  0.00    +0.062 C 
ATOM      7  C   UNL     1      23.390   0.587 -19.086  0.00  0.00    +0.144 C 
ATOM      8  C   UNL     1      20.968   0.864 -18.586  0.00  0.00    +0.113 C 
ATOM      9  N   UNL     1      22.088  -0.026 -18.952  0.00  0.00    -0.290 N 
ATOM     10  C   UNL     1      21.776  -1.288 -19.440  0.00  0.00    +0.283 C 
ATOM     11  O   UNL     1      20.662  -1.757 -19.175  0.00  0.00    -0.267 OA
ENDROOT
BRANCH  10  12
ATOM     12  C   UNL     1      22.721  -2.079 -20.270  0.00  0.00    +0.194 A 
ATOM     13  O   UNL     1      23.894  -1.345 -20.461  0.00  0.00    -0.449 OA
ATOM     14  C   UNL     1      22.560  -2.756 -21.492  0.00  0.00    +0.008 A 
ATOM     15  C   UNL     1      23.785  -0.899 -21.746  0.00  0.00    +0.153 A 
ATOM     16  C   UNL     1      22.943  -1.758 -22.440  0.00  0.00    +0.025 A 
ATOM     17  C   UNL     1      22.025  -4.096 -21.844  0.00  0.00    +0.048 C 
ATOM     18  C   UNL     1      24.346   0.251 -22.284  0.00  0.00    +0.095 A 
ATOM     19  C   UNL     1      22.675  -1.493 -23.791  0.00  0.00    +0.012 A 
ATOM     20  C   UNL     1      23.956   0.577 -23.583  0.00  0.00    +0.022 A 
ATOM     21  C   UNL     1      23.135  -0.280 -24.326  0.00  0.00    +0.002 A 
BRANCH  18  22
ATOM     22  C   UNL     1      25.191   1.076 -21.487  0.00  0.00    +0.103 C 
ATOM     23  N   UNL     1      25.864   1.740 -20.817  0.00  0.00    -0.191 NA
ENDBRANCH  18  22
ENDBRANCH  10  12
BRANCH   2  24
ATOM     24  C   UNL     1      25.973   3.527 -15.845  0.00  0.00    +0.251 C 
ATOM     25  O   UNL     1      26.017   3.717 -14.631  0.00  0.00    -0.270 OA
ATOM     26  N   UNL     1      27.005   3.900 -16.671  0.00  0.00    -0.307 N 
ATOM     27  H   UNL     1      26.919   3.747 -17.640  0.00  0.00    +0.149 HD
BRANCH  26  28
ATOM     28  C   UNL     1      28.214   4.510 -16.166  0.00  0.00    +0.139 C 
BRANCH  28  29
ATOM     29  C   UNL     1      29.077   5.035 -17.281  0.00  0.00    -0.030 A 
ATOM     30  C   UNL     1      29.595   4.162 -18.240  0.00  0.00    +0.007 A 
ATOM     31  C   UNL     1      29.335   6.405 -17.417  0.00  0.00    +0.007 A 
ATOM     32  C   UNL     1      30.380   4.652 -19.285  0.00  0.00    +0.023 A 
ATOM     33  C   UNL     1      30.117   6.888 -18.478  0.00  0.00    +0.023 A 
ATOM     34  C   UNL     1      30.673   6.018 -19.419  0.00  0.00    +0.030 A 
BRANCH  34  35
ATOM     35  N   UNL     1      31.462   6.424 -20.487  0.00  0.00    -0.333 N 
ATOM     36  C   UNL     1      32.890   6.734 -20.321  0.00  0.00    +0.086 C 
ATOM     37  C   UNL     1      31.181   5.755 -21.774  0.00  0.00    +0.086 C 
ATOM     38  C   UNL     1      33.348   7.627 -21.507  0.00  0.00    -0.060 C 
ATOM     39  C   UNL     1      31.645   6.666 -22.929  0.00  0.00    -0.060 C 
ATOM     40  N   UNL     1      33.082   7.011 -22.831  0.00  0.00    +0.380 N 
ATOM     41  C   UNL     1      33.458   7.918 -23.913  0.00  0.00    -0.096 C 
ATOM     42  H   UNL     1      33.644   6.165 -22.922  0.00  0.00    -0.082 HD
ENDBRANCH  34  35
ENDBRANCH  28  29
ENDBRANCH  26  28
ENDBRANCH   2  24
TORSDOF 6
ENDMDL
