REMARK  Name = CTX-1020795
REMARK  7 active torsions:
REMARK  status: ('A' for Active; 'I' for Inactive)
REMARK    1  A    between atoms: C_8  and  C_11
REMARK    2  A    between atoms: C_9  and  C_12
REMARK    3  A    between atoms: C_21  and  C_23
REMARK    4  A    between atoms: N_26  and  C_27
REMARK    5  A    between atoms: C_27  and  C_28
REMARK    6  A    between atoms: C_33  and  N_34
REMARK    7  A    between atoms: N_39  and  C_40
REMARK                            x       y       z     vdW  Elec       q    Type
REMARK                         _______ _______ _______ _____ _____    ______ ____
ROOT
ATOM      1  C   UNL     1       4.203  -5.711  -1.177  0.00  0.00    +0.283 C 
ATOM      2  O   UNL     1       4.499  -4.773  -0.441  0.00  0.00    -0.267 OA
ATOM      3  N   UNL     1       5.059  -6.913  -1.044  0.00  0.00    -0.289 N 
ATOM      4  C   UNL     1       5.584  -8.121  -1.917  0.00  0.00    +0.163 C 
ATOM      5  C   UNL     1       5.566  -7.002   0.317  0.00  0.00    +0.113 C 
ATOM      6  C   UNL     1       6.391  -9.305  -1.035  0.00  0.00    +0.063 A 
ATOM      7  C   UNL     1       7.051  -7.323   0.346  0.00  0.00    +0.056 C 
ATOM      8  N   UNL     1       6.356 -10.685  -1.255  0.00  0.00    -0.245 NA
ATOM      9  C   UNL     1       7.047  -8.795   0.101  0.00  0.00    -0.023 A 
ATOM     10  C   UNL     1       6.859 -11.505  -0.224  0.00  0.00    +0.126 A 
ATOM     11  C   UNL     1       7.482  -9.637   1.130  0.00  0.00    +0.008 A 
ATOM     12  C   UNL     1       7.343 -10.988   0.984  0.00  0.00    +0.033 A 
ENDROOT
BRANCH   1  20
ATOM     13 CL   UNL     1       1.236  -8.187  -5.244  0.00  0.00    -0.080 Cl
ATOM     14  C   UNL     1       0.781  -6.653  -4.664  0.00  0.00    +0.084 A 
ATOM     15  C   UNL     1       1.486  -6.021  -3.608  0.00  0.00    +0.154 A 
ATOM     16  C   UNL     1      -0.326  -5.982  -5.219  0.00  0.00    +0.024 A 
ATOM     17  O   UNL     1       2.624  -6.478  -2.982  0.00  0.00    -0.448 OA
ATOM     18  C   UNL     1       1.080  -4.813  -3.080  0.00  0.00    +0.025 A 
ATOM     19  C   UNL     1      -0.734  -4.747  -4.729  0.00  0.00    +0.002 A 
ATOM     20  C   UNL     1       2.980  -5.550  -2.027  0.00  0.00    +0.194 A 
ATOM     21  C   UNL     1       1.990  -4.530  -2.006  0.00  0.00    +0.008 A 
ATOM     22  C   UNL     1      -0.060  -4.165  -3.640  0.00  0.00    +0.012 A 
ATOM     23  C   UNL     1       1.790  -3.344  -1.101  0.00  0.00    +0.048 C 
ENDBRANCH   1  20
BRANCH  10  24
ATOM     24  C   UNL     1       6.988 -13.041  -0.246  0.00  0.00    +0.263 C 
ATOM     25  O   UNL     1       7.292 -13.621   0.823  0.00  0.00    -0.269 OA
ATOM     26  N   UNL     1       6.852 -13.781  -1.393  0.00  0.00    -0.306 N 
ATOM     27  H   UNL     1       6.591 -13.342  -2.235  0.00  0.00    +0.149 HD
BRANCH  26  28
ATOM     28  C   UNL     1       7.094 -15.219  -1.365  0.00  0.00    +0.140 C 
BRANCH  28  29
ATOM     29  C   UNL     1       5.865 -15.995  -1.748  0.00  0.00    -0.030 A 
ATOM     30  C   UNL     1       5.659 -16.382  -3.070  0.00  0.00    +0.007 A 
ATOM     31  C   UNL     1       4.886 -16.307  -0.802  0.00  0.00    +0.007 A 
ATOM     32  C   UNL     1       4.518 -17.114  -3.424  0.00  0.00    +0.023 A 
ATOM     33  C   UNL     1       3.721 -16.983  -1.186  0.00  0.00    +0.023 A 
ATOM     34  C   UNL     1       3.527 -17.454  -2.494  0.00  0.00    +0.030 A 
BRANCH  34  35
ATOM     35  N   UNL     1       2.455 -18.257  -2.832  0.00  0.00    -0.333 N 
ATOM     36  C   UNL     1       1.745 -19.065  -1.824  0.00  0.00    +0.086 C 
ATOM     37  C   UNL     1       1.872 -18.306  -4.184  0.00  0.00    +0.086 C 
ATOM     38  C   UNL     1       1.506 -20.502  -2.349  0.00  0.00    -0.060 C 
ATOM     39  C   UNL     1       1.624 -19.768  -4.624  0.00  0.00    -0.060 C 
ATOM     40  N   UNL     1       0.795 -20.505  -3.645  0.00  0.00    +0.380 N 
ATOM     41  C   UNL     1       0.523 -21.863  -4.098  0.00  0.00    -0.096 C 
ATOM     42  H   UNL     1      -0.111 -20.047  -3.544  0.00  0.00    -0.082 HD
ENDBRANCH  34  35
ENDBRANCH  28  29
ENDBRANCH  26  28
ENDBRANCH  10  24
TORSDOF 5
