MODEL 1
REMARK VINA RESULT:   -10.253      0.000      0.000
REMARK INTER + INTRA:         -12.798
REMARK INTER:                 -12.651
REMARK INTRA:                  -0.147
REMARK UNBOUND:                -0.147
REMARK  Name = CTX-1020770
REMARK  5 active torsions:
REMARK  status: ('A' for Active; 'I' for Inactive)
REMARK    1  A    between atoms: C_2  and  C_4
REMARK    2  A    between atoms: N_9  and  C_12
REMARK    3  A    between atoms: C_12  and  C_14
REMARK    4  A    between atoms: C_15  and  C_19
REMARK    5  A    between atoms: C_23  and  C_26
REMARK                            x       y       z     vdW  Elec       q    Type
REMARK                         _______ _______ _______ _____ _____    ______ ____
ROOT
ATOM      1  S   UNL     1      35.319   8.000 -25.062  0.00  0.00    -0.088 S 
ATOM      2  C   UNL     1      34.593   8.141 -26.607  0.00  0.00    +0.074 A 
ATOM      3  C   UNL     1      33.812   7.816 -24.305  0.00  0.00    -0.003 A 
ATOM      4  C   UNL     1      33.214   8.030 -26.521  0.00  0.00    +0.026 A 
ATOM      5  C   UNL     1      32.748   7.832 -25.185  0.00  0.00    -0.019 A 
ATOM      6  C   UNL     1      33.665   7.635 -22.830  0.00  0.00    +0.062 C 
ATOM      7  C   UNL     1      31.313   7.694 -24.742  0.00  0.00    +0.144 C 
ATOM      8  C   UNL     1      32.215   7.961 -22.438  0.00  0.00    +0.113 C 
ATOM      9  N   UNL     1      31.260   7.276 -23.333  0.00  0.00    -0.290 N 
ATOM     10  C   UNL     1      30.438   6.192 -22.991  0.00  0.00    +0.283 C 
ATOM     11  O   UNL     1      29.824   5.577 -23.865  0.00  0.00    -0.267 OA
ENDROOT
BRANCH  10  12
ATOM     12  C   UNL     1      30.331   5.796 -21.592  0.00  0.00    +0.194 A 
ATOM     13  O   UNL     1      30.267   6.763 -20.627  0.00  0.00    -0.450 OA
ATOM     14  C   UNL     1      30.201   4.542 -20.997  0.00  0.00    +0.008 A 
ATOM     15  C   UNL     1      30.192   6.150 -19.422  0.00  0.00    +0.136 A 
ATOM     16  C   UNL     1      30.113   4.777 -19.587  0.00  0.00    +0.024 A 
ATOM     17  C   UNL     1      30.188   3.213 -21.661  0.00  0.00    +0.048 C 
ATOM     18  C   UNL     1      30.197   6.801 -18.191  0.00  0.00    +0.047 A 
ATOM     19  C   UNL     1      29.986   3.978 -18.435  0.00  0.00    +0.012 A 
ATOM     20  C   UNL     1      30.088   5.990 -17.060  0.00  0.00    +0.004 A 
ATOM     21  C   UNL     1      29.972   4.602 -17.178  0.00  0.00    +0.001 A 
ENDBRANCH  10  12
BRANCH   2  22
ATOM     22  C   UNL     1      35.365   8.359 -27.822  0.00  0.00    +0.251 C 
ATOM     23  O   UNL     1      35.062   9.215 -28.653  0.00  0.00    -0.270 OA
ATOM     24  N   UNL     1      36.469   7.562 -28.014  0.00  0.00    -0.305 N 
ATOM     25  H   UNL     1      36.697   6.877 -27.345  0.00  0.00    +0.149 HD
BRANCH  24  26
ATOM     26  C   UNL     1      37.296   7.714 -29.185  0.00  0.00    +0.160 C 
BRANCH  26  27
ATOM     27  C   UNL     1      38.677   8.147 -28.804  0.00  0.00    +0.065 A 
ATOM     28  N   UNL     1      39.780   7.706 -29.535  0.00  0.00    -0.251 NA
ATOM     29  C   UNL     1      38.988   8.981 -27.744  0.00  0.00    +0.071 A 
ATOM     30  C   UNL     1      40.880   8.209 -29.018  0.00  0.00    +0.156 A 
ATOM     31  S   UNL     1      40.681   9.225 -27.652  0.00  0.00    -0.084 S 
ENDBRANCH  26  27
ENDBRANCH  24  26
ENDBRANCH   2  22
TORSDOF 4
ENDMDL
MODEL 2
REMARK VINA RESULT:    -9.729      9.353     15.349
REMARK INTER + INTRA:         -12.151
REMARK INTER:                 -12.030
REMARK INTRA:                  -0.121
REMARK UNBOUND:                -0.147
REMARK  Name = CTX-1020770
REMARK  5 active torsions:
REMARK  status: ('A' for Active; 'I' for Inactive)
REMARK    1  A    between atoms: C_2  and  C_4
REMARK    2  A    between atoms: N_9  and  C_12
REMARK    3  A    between atoms: C_12  and  C_14
REMARK    4  A    between atoms: C_15  and  C_19
REMARK    5  A    between atoms: C_23  and  C_26
REMARK                            x       y       z     vdW  Elec       q    Type
REMARK                         _______ _______ _______ _____ _____    ______ ____
ROOT
ATOM      1  S   UNL     1      22.861   0.925 -18.561  0.00  0.00    -0.088 S 
ATOM      2  C   UNL     1      22.179  -0.412 -19.386  0.00  0.00    +0.074 A 
ATOM      3  C   UNL     1      24.212   0.946 -19.586  0.00  0.00    -0.003 A 
ATOM      4  C   UNL     1      22.986  -0.811 -20.441  0.00  0.00    +0.026 A 
ATOM      5  C   UNL     1      24.169  -0.022 -20.572  0.00  0.00    -0.019 A 
ATOM      6  C   UNL     1      25.324   1.931 -19.439  0.00  0.00    +0.062 C 
ATOM      7  C   UNL     1      25.264  -0.202 -21.594  0.00  0.00    +0.144 C 
ATOM      8  C   UNL     1      26.554   1.398 -20.190  0.00  0.00    +0.113 C 
ATOM      9  N   UNL     1      26.189   0.941 -21.546  0.00  0.00    -0.290 N 
ATOM     10  C   UNL     1      26.521   1.579 -22.751  0.00  0.00    +0.283 C 
ATOM     11  O   UNL     1      26.002   1.219 -23.809  0.00  0.00    -0.267 OA
ENDROOT
BRANCH  10  12
ATOM     12  C   UNL     1      27.476   2.680 -22.731  0.00  0.00    +0.194 A 
ATOM     13  O   UNL     1      28.575   2.597 -21.919  0.00  0.00    -0.450 OA
ATOM     14  C   UNL     1      27.543   3.856 -23.477  0.00  0.00    +0.008 A 
ATOM     15  C   UNL     1      29.290   3.736 -22.064  0.00  0.00    +0.136 A 
ATOM     16  C   UNL     1      28.721   4.540 -23.038  0.00  0.00    +0.024 A 
ATOM     17  C   UNL     1      26.582   4.343 -24.499  0.00  0.00    +0.048 C 
ATOM     18  C   UNL     1      30.433   4.061 -21.337  0.00  0.00    +0.047 A 
ATOM     19  C   UNL     1      29.361   5.754 -23.352  0.00  0.00    +0.012 A 
ATOM     20  C   UNL     1      31.043   5.277 -21.650  0.00  0.00    +0.004 A 
ATOM     21  C   UNL     1      30.525   6.106 -22.649  0.00  0.00    +0.001 A 
ENDBRANCH  10  12
BRANCH   2  22
ATOM     22  C   UNL     1      20.918  -1.022 -18.990  0.00  0.00    +0.251 C 
ATOM     23  O   UNL     1      20.259  -1.732 -19.750  0.00  0.00    -0.270 OA
ATOM     24  N   UNL     1      20.478  -0.776 -17.710  0.00  0.00    -0.305 N 
ATOM     25  H   UNL     1      21.011  -0.202 -17.115  0.00  0.00    +0.149 HD
BRANCH  24  26
ATOM     26  C   UNL     1      19.245  -1.347 -17.230  0.00  0.00    +0.160 C 
BRANCH  26  27
ATOM     27  C   UNL     1      19.020  -0.987 -15.795  0.00  0.00    +0.065 A 
ATOM     28  N   UNL     1      20.096  -0.629 -14.982  0.00  0.00    -0.251 NA
ATOM     29  C   UNL     1      17.791  -0.975 -15.158  0.00  0.00    +0.071 A 
ATOM     30  C   UNL     1      19.661  -0.361 -13.769  0.00  0.00    +0.156 A 
ATOM     31  S   UNL     1      17.972  -0.511 -13.519  0.00  0.00    -0.084 S 
ENDBRANCH  26  27
ENDBRANCH  24  26
ENDBRANCH   2  22
TORSDOF 4
ENDMDL
MODEL 3
REMARK VINA RESULT:    -9.584     10.083     15.256
REMARK INTER + INTRA:         -11.972
REMARK INTER:                 -11.331
REMARK INTRA:                  -0.640
REMARK UNBOUND:                -0.147
REMARK  Name = CTX-1020770
REMARK  5 active torsions:
REMARK  status: ('A' for Active; 'I' for Inactive)
REMARK    1  A    between atoms: C_2  and  C_4
REMARK    2  A    between atoms: N_9  and  C_12
REMARK    3  A    between atoms: C_12  and  C_14
REMARK    4  A    between atoms: C_15  and  C_19
REMARK    5  A    between atoms: C_23  and  C_26
REMARK                            x       y       z     vdW  Elec       q    Type
REMARK                         _______ _______ _______ _____ _____    ______ ____
ROOT
ATOM      1  S   UNL     1      25.996   2.699 -18.085  0.00  0.00    -0.088 S 
ATOM      2  C   UNL     1      24.565   2.089 -17.368  0.00  0.00    +0.074 A 
ATOM      3  C   UNL     1      25.710   1.846 -19.523  0.00  0.00    -0.003 A 
ATOM      4  C   UNL     1      23.884   1.257 -18.244  0.00  0.00    +0.026 A 
ATOM      5  C   UNL     1      24.538   1.114 -19.505  0.00  0.00    -0.019 A 
ATOM      6  C   UNL     1      26.633   1.904 -20.695  0.00  0.00    +0.062 C 
ATOM      7  C   UNL     1      24.079   0.270 -20.668  0.00  0.00    +0.144 C 
ATOM      8  C   UNL     1      26.342   0.703 -21.609  0.00  0.00    +0.113 C 
ATOM      9  N   UNL     1      24.893   0.567 -21.857  0.00  0.00    -0.290 N 
ATOM     10  C   UNL     1      24.232   0.836 -23.065  0.00  0.00    +0.283 C 
ATOM     11  O   UNL     1      23.001   0.875 -23.105  0.00  0.00    -0.267 OA
ENDROOT
BRANCH  10  12
ATOM     12  C   UNL     1      25.020   1.081 -24.266  0.00  0.00    +0.194 A 
ATOM     13  O   UNL     1      25.058   0.126 -25.246  0.00  0.00    -0.450 OA
ATOM     14  C   UNL     1      25.740   2.199 -24.685  0.00  0.00    +0.008 A 
ATOM     15  C   UNL     1      25.862   0.575 -26.238  0.00  0.00    +0.136 A 
ATOM     16  C   UNL     1      26.287   1.865 -25.965  0.00  0.00    +0.024 A 
ATOM     17  C   UNL     1      25.946   3.477 -23.956  0.00  0.00    +0.048 C 
ATOM     18  C   UNL     1      26.217  -0.152 -27.372  0.00  0.00    +0.047 A 
ATOM     19  C   UNL     1      27.103   2.509 -26.915  0.00  0.00    +0.012 A 
ATOM     20  C   UNL     1      27.041   0.498 -28.293  0.00  0.00    +0.004 A 
ATOM     21  C   UNL     1      27.468   1.811 -28.077  0.00  0.00    +0.001 A 
ENDBRANCH  10  12
BRANCH   2  22
ATOM     22  C   UNL     1      24.163   2.422 -16.009  0.00  0.00    +0.251 C 
ATOM     23  O   UNL     1      24.776   3.235 -15.318  0.00  0.00    -0.270 OA
ATOM     24  N   UNL     1      23.049   1.786 -15.512  0.00  0.00    -0.305 N 
ATOM     25  H   UNL     1      22.571   1.133 -16.074  0.00  0.00    +0.149 HD
BRANCH  24  26
ATOM     26  C   UNL     1      22.573   2.061 -14.180  0.00  0.00    +0.160 C 
BRANCH  26  27
ATOM     27  C   UNL     1      21.079   2.151 -14.161  0.00  0.00    +0.065 A 
ATOM     28  N   UNL     1      20.450   3.392 -14.059  0.00  0.00    -0.251 NA
ATOM     29  C   UNL     1      20.214   1.073 -14.234  0.00  0.00    +0.071 A 
ATOM     30  C   UNL     1      19.145   3.225 -14.057  0.00  0.00    +0.156 A 
ATOM     31  S   UNL     1      18.587   1.608 -14.177  0.00  0.00    -0.084 S 
ENDBRANCH  26  27
ENDBRANCH  24  26
ENDBRANCH   2  22
TORSDOF 4
ENDMDL
MODEL 4
REMARK VINA RESULT:    -9.445      9.463     12.669
REMARK INTER + INTRA:         -11.800
REMARK INTER:                 -11.059
REMARK INTRA:                  -0.742
REMARK UNBOUND:                -0.147
REMARK  Name = CTX-1020770
REMARK  5 active torsions:
REMARK  status: ('A' for Active; 'I' for Inactive)
REMARK    1  A    between atoms: C_2  and  C_4
REMARK    2  A    between atoms: N_9  and  C_12
REMARK    3  A    between atoms: C_12  and  C_14
REMARK    4  A    between atoms: C_15  and  C_19
REMARK    5  A    between atoms: C_23  and  C_26
REMARK                            x       y       z     vdW  Elec       q    Type
REMARK                         _______ _______ _______ _____ _____    ______ ____
ROOT
ATOM      1  S   UNL     1      23.992   1.256 -22.278  0.00  0.00    -0.088 S 
ATOM      2  C   UNL     1      25.423   2.167 -22.043  0.00  0.00    +0.074 A 
ATOM      3  C   UNL     1      23.719   1.142 -20.607  0.00  0.00    -0.003 A 
ATOM      4  C   UNL     1      25.660   2.382 -20.694  0.00  0.00    +0.026 A 
ATOM      5  C   UNL     1      24.670   1.796 -19.849  0.00  0.00    -0.019 A 
ATOM      6  C   UNL     1      22.550   0.417 -20.027  0.00  0.00    +0.062 C 
ATOM      7  C   UNL     1      24.640   1.825 -18.340  0.00  0.00    +0.144 C 
ATOM      8  C   UNL     1      22.845   0.113 -18.550  0.00  0.00    +0.113 C 
ATOM      9  N   UNL     1      23.349   1.314 -17.854  0.00  0.00    -0.290 N 
ATOM     10  C   UNL     1      22.652   2.071 -16.900  0.00  0.00    +0.283 C 
ATOM     11  O   UNL     1      23.091   3.161 -16.528  0.00  0.00    -0.267 OA
ENDROOT
BRANCH  10  12
ATOM     12  C   UNL     1      21.397   1.557 -16.366  0.00  0.00    +0.194 A 
ATOM     13  O   UNL     1      21.405   0.877 -15.178  0.00  0.00    -0.450 OA
ATOM     14  C   UNL     1      20.083   1.686 -16.813  0.00  0.00    +0.008 A 
ATOM     15  C   UNL     1      20.137   0.490 -14.907  0.00  0.00    +0.136 A 
ATOM     16  C   UNL     1      19.268   0.989 -15.864  0.00  0.00    +0.024 A 
ATOM     17  C   UNL     1      19.600   2.369 -18.041  0.00  0.00    +0.048 C 
ATOM     18  C   UNL     1      19.754  -0.299 -13.825  0.00  0.00    +0.047 A 
ATOM     19  C   UNL     1      17.894   0.719 -15.717  0.00  0.00    +0.012 A 
ATOM     20  C   UNL     1      18.390  -0.570 -13.707  0.00  0.00    +0.004 A 
ATOM     21  C   UNL     1      17.472  -0.061 -14.629  0.00  0.00    +0.001 A 
ENDBRANCH  10  12
BRANCH   2  22
ATOM     22  C   UNL     1      26.254   2.625 -23.147  0.00  0.00    +0.251 C 
ATOM     23  O   UNL     1      27.463   2.826 -23.025  0.00  0.00    -0.270 OA
ATOM     24  N   UNL     1      25.633   2.828 -24.357  0.00  0.00    -0.305 N 
ATOM     25  H   UNL     1      24.665   2.669 -24.439  0.00  0.00    +0.149 HD
BRANCH  24  26
ATOM     26  C   UNL     1      26.380   3.273 -25.506  0.00  0.00    +0.160 C 
BRANCH  26  27
ATOM     27  C   UNL     1      26.489   2.179 -26.521  0.00  0.00    +0.065 A 
ATOM     28  N   UNL     1      26.628   2.486 -27.875  0.00  0.00    -0.251 NA
ATOM     29  C   UNL     1      26.460   0.824 -26.241  0.00  0.00    +0.071 A 
ATOM     30  C   UNL     1      26.700   1.374 -28.574  0.00  0.00    +0.156 A 
ATOM     31  S   UNL     1      26.610  -0.089 -27.684  0.00  0.00    -0.084 S 
ENDBRANCH  26  27
ENDBRANCH  24  26
ENDBRANCH   2  22
TORSDOF 4
ENDMDL
MODEL 5
REMARK VINA RESULT:    -9.265      6.952     12.533
REMARK INTER + INTRA:         -11.578
REMARK INTER:                 -10.970
REMARK INTRA:                  -0.609
REMARK UNBOUND:                -0.147
REMARK  Name = CTX-1020770
REMARK  5 active torsions:
REMARK  status: ('A' for Active; 'I' for Inactive)
REMARK    1  A    between atoms: C_2  and  C_4
REMARK    2  A    between atoms: N_9  and  C_12
REMARK    3  A    between atoms: C_12  and  C_14
REMARK    4  A    between atoms: C_15  and  C_19
REMARK    5  A    between atoms: C_23  and  C_26
REMARK                            x       y       z     vdW  Elec       q    Type
REMARK                         _______ _______ _______ _____ _____    ______ ____
ROOT
ATOM      1  S   UNL     1      26.763   1.366 -19.640  0.00  0.00    -0.088 S 
ATOM      2  C   UNL     1      25.327   1.138 -20.544  0.00  0.00    +0.074 A 
ATOM      3  C   UNL     1      27.476   2.270 -20.886  0.00  0.00    -0.003 A 
ATOM      4  C   UNL     1      25.408   1.770 -21.776  0.00  0.00    +0.026 A 
ATOM      5  C   UNL     1      26.653   2.439 -21.983  0.00  0.00    -0.019 A 
ATOM      6  C   UNL     1      28.852   2.839 -20.786  0.00  0.00    +0.062 C 
ATOM      7  C   UNL     1      27.074   3.200 -23.216  0.00  0.00    +0.144 C 
ATOM      8  C   UNL     1      29.346   3.177 -22.201  0.00  0.00    +0.113 C 
ATOM      9  N   UNL     1      28.323   3.931 -22.952  0.00  0.00    -0.290 N 
ATOM     10  C   UNL     1      28.382   5.291 -23.294  0.00  0.00    +0.283 C 
ATOM     11  O   UNL     1      27.389   5.861 -23.750  0.00  0.00    -0.267 OA
ENDROOT
BRANCH  10  12
ATOM     12  C   UNL     1      29.627   6.021 -23.091  0.00  0.00    +0.194 A 
ATOM     13  O   UNL     1      30.341   6.441 -24.180  0.00  0.00    -0.450 OA
ATOM     14  C   UNL     1      30.251   6.473 -21.929  0.00  0.00    +0.008 A 
ATOM     15  C   UNL     1      31.453   7.070 -23.735  0.00  0.00    +0.136 A 
ATOM     16  C   UNL     1      31.438   7.153 -22.353  0.00  0.00    +0.024 A 
ATOM     17  C   UNL     1      29.815   6.275 -20.523  0.00  0.00    +0.048 C 
ATOM     18  C   UNL     1      32.472   7.564 -24.547  0.00  0.00    +0.047 A 
ATOM     19  C   UNL     1      32.503   7.818 -21.717  0.00  0.00    +0.012 A 
ATOM     20  C   UNL     1      33.528   8.204 -23.896  0.00  0.00    +0.004 A 
ATOM     21  C   UNL     1      33.540   8.341 -22.506  0.00  0.00    +0.001 A 
ENDBRANCH  10  12
BRANCH   2  22
ATOM     22  C   UNL     1      24.197   0.367 -20.047  0.00  0.00    +0.251 C 
ATOM     23  O   UNL     1      24.088   0.041 -18.865  0.00  0.00    -0.270 OA
ATOM     24  N   UNL     1      23.232   0.008 -20.959  0.00  0.00    -0.305 N 
ATOM     25  H   UNL     1      23.334   0.271 -21.903  0.00  0.00    +0.149 HD
BRANCH  24  26
ATOM     26  C   UNL     1      22.075  -0.748 -20.553  0.00  0.00    +0.160 C 
BRANCH  26  27
ATOM     27  C   UNL     1      22.227  -2.189 -20.927  0.00  0.00    +0.065 A 
ATOM     28  N   UNL     1      23.159  -2.571 -21.893  0.00  0.00    -0.251 NA
ATOM     29  C   UNL     1      21.499  -3.235 -20.387  0.00  0.00    +0.071 A 
ATOM     30  C   UNL     1      23.113  -3.876 -22.057  0.00  0.00    +0.156 A 
ATOM     31  S   UNL     1      21.979  -4.722 -21.089  0.00  0.00    -0.084 S 
ENDBRANCH  26  27
ENDBRANCH  24  26
ENDBRANCH   2  22
TORSDOF 4
ENDMDL
