MODEL 1
REMARK VINA RESULT:   -10.360      0.000      0.000
REMARK INTER + INTRA:         -12.872
REMARK INTER:                 -12.783
REMARK INTRA:                  -0.088
REMARK UNBOUND:                -0.088
REMARK  Name = CTX-1020772
REMARK  5 active torsions:
REMARK  status: ('A' for Active; 'I' for Inactive)
REMARK    1  A    between atoms: C_2  and  C_4
REMARK    2  A    between atoms: N_9  and  C_12
REMARK    3  A    between atoms: C_12  and  C_14
REMARK    4  A    between atoms: C_15  and  C_19
REMARK    5  A    between atoms: C_23  and  C_26
REMARK                            x       y       z     vdW  Elec       q    Type
REMARK                         _______ _______ _______ _____ _____    ______ ____
ROOT
ATOM      1  S   UNL     1      35.317   8.064 -24.960  0.00  0.00    -0.088 S 
ATOM      2  C   UNL     1      34.656   8.134 -26.535  0.00  0.00    +0.074 A 
ATOM      3  C   UNL     1      33.786   7.836 -24.261  0.00  0.00    -0.003 A 
ATOM      4  C   UNL     1      33.276   7.969 -26.505  0.00  0.00    +0.026 A 
ATOM      5  C   UNL     1      32.760   7.784 -25.187  0.00  0.00    -0.019 A 
ATOM      6  C   UNL     1      33.577   7.690 -22.791  0.00  0.00    +0.062 C 
ATOM      7  C   UNL     1      31.312   7.594 -24.806  0.00  0.00    +0.144 C 
ATOM      8  C   UNL     1      32.100   7.962 -22.475  0.00  0.00    +0.113 C 
ATOM      9  N   UNL     1      31.217   7.210 -23.390  0.00  0.00    -0.290 N 
ATOM     10  C   UNL     1      30.440   6.092 -23.049  0.00  0.00    +0.283 C 
ATOM     11  O   UNL     1      29.897   5.421 -23.928  0.00  0.00    -0.267 OA
ENDROOT
BRANCH  10  12
ATOM     12  C   UNL     1      30.296   5.736 -21.642  0.00  0.00    +0.194 A 
ATOM     13  O   UNL     1      30.181   6.733 -20.713  0.00  0.00    -0.450 OA
ATOM     14  C   UNL     1      30.178   4.501 -21.010  0.00  0.00    +0.008 A 
ATOM     15  C   UNL     1      30.081   6.160 -19.492  0.00  0.00    +0.136 A 
ATOM     16  C   UNL     1      30.028   4.781 -19.614  0.00  0.00    +0.024 A 
ATOM     17  C   UNL     1      30.224   3.150 -21.627  0.00  0.00    +0.048 C 
ATOM     18  C   UNL     1      30.034   6.852 -18.285  0.00  0.00    +0.047 A 
ATOM     19  C   UNL     1      29.862   4.020 -18.441  0.00  0.00    +0.012 A 
ATOM     20  C   UNL     1      29.878   6.079 -17.133  0.00  0.00    +0.004 A 
ATOM     21  C   UNL     1      29.779   4.687 -17.210  0.00  0.00    +0.001 A 
ENDBRANCH  10  12
BRANCH   2  22
ATOM     22  C   UNL     1      35.455   8.348 -27.729  0.00  0.00    +0.251 C 
ATOM     23  O   UNL     1      35.178   9.228 -28.547  0.00  0.00    -0.270 OA
ATOM     24  N   UNL     1      36.554   7.537 -27.934  0.00  0.00    -0.304 N 
ATOM     25  H   UNL     1      36.786   6.834 -27.284  0.00  0.00    +0.149 HD
BRANCH  24  26
ATOM     26  C   UNL     1      37.355   7.741 -29.114  0.00  0.00    +0.180 C 
BRANCH  26  27
ATOM     27  C   UNL     1      38.783   7.982 -28.827  0.00  0.00    +0.142 A 
ATOM     28  O   UNL     1      39.728   7.763 -29.794  0.00  0.00    -0.446 OA
ATOM     29  C   UNL     1      39.439   8.418 -27.696  0.00  0.00    +0.157 A 
ATOM     30  C   UNL     1      40.901   8.085 -29.175  0.00  0.00    +0.308 A 
ATOM     31  N   UNL     1      40.787   8.482 -27.926  0.00  0.00    -0.224 NA
ENDBRANCH  26  27
ENDBRANCH  24  26
ENDBRANCH   2  22
TORSDOF 4
ENDMDL
MODEL 2
REMARK VINA RESULT:   -10.050     10.084     12.756
REMARK INTER + INTRA:         -12.489
REMARK INTER:                 -11.800
REMARK INTRA:                  -0.689
REMARK UNBOUND:                -0.088
REMARK  Name = CTX-1020772
REMARK  5 active torsions:
REMARK  status: ('A' for Active; 'I' for Inactive)
REMARK    1  A    between atoms: C_2  and  C_4
REMARK    2  A    between atoms: N_9  and  C_12
REMARK    3  A    between atoms: C_12  and  C_14
REMARK    4  A    between atoms: C_15  and  C_19
REMARK    5  A    between atoms: C_23  and  C_26
REMARK                            x       y       z     vdW  Elec       q    Type
REMARK                         _______ _______ _______ _____ _____    ______ ____
ROOT
ATOM      1  S   UNL     1      23.649   0.314 -22.841  0.00  0.00    -0.088 S 
ATOM      2  C   UNL     1      25.242   0.930 -22.744  0.00  0.00    +0.074 A 
ATOM      3  C   UNL     1      23.462   0.368 -21.153  0.00  0.00    -0.003 A 
ATOM      4  C   UNL     1      25.602   1.179 -21.425  0.00  0.00    +0.026 A 
ATOM      5  C   UNL     1      24.569   0.866 -20.491  0.00  0.00    -0.019 A 
ATOM      6  C   UNL     1      22.214  -0.066 -20.460  0.00  0.00    +0.062 C 
ATOM      7  C   UNL     1      24.642   1.004 -18.990  0.00  0.00    +0.144 C 
ATOM      8  C   UNL     1      22.537  -0.322 -18.981  0.00  0.00    +0.113 C 
ATOM      9  N   UNL     1      23.307   0.800 -18.407  0.00  0.00    -0.290 N 
ATOM     10  C   UNL     1      22.823   1.749 -17.494  0.00  0.00    +0.283 C 
ATOM     11  O   UNL     1      23.483   2.756 -17.233  0.00  0.00    -0.267 OA
ENDROOT
BRANCH  10  12
ATOM     12  C   UNL     1      21.523   1.527 -16.870  0.00  0.00    +0.194 A 
ATOM     13  O   UNL     1      21.474   0.988 -15.613  0.00  0.00    -0.450 OA
ATOM     14  C   UNL     1      20.232   1.831 -17.292  0.00  0.00    +0.008 A 
ATOM     15  C   UNL     1      20.173   0.862 -15.262  0.00  0.00    +0.136 A 
ATOM     16  C   UNL     1      19.358   1.407 -16.241  0.00  0.00    +0.024 A 
ATOM     17  C   UNL     1      19.812   2.444 -18.579  0.00  0.00    +0.048 C 
ATOM     18  C   UNL     1      19.716   0.272 -14.086  0.00  0.00    +0.047 A 
ATOM     19  C   UNL     1      17.969   1.417 -16.013  0.00  0.00    +0.012 A 
ATOM     20  C   UNL     1      18.334   0.285 -13.884  0.00  0.00    +0.004 A 
ATOM     21  C   UNL     1      17.475   0.860 -14.824  0.00  0.00    +0.001 A 
ENDBRANCH  10  12
BRANCH   2  22
ATOM     22  C   UNL     1      26.087   1.144 -23.906  0.00  0.00    +0.251 C 
ATOM     23  O   UNL     1      27.180   0.587 -24.027  0.00  0.00    -0.270 OA
ATOM     24  N   UNL     1      25.635   1.996 -24.895  0.00  0.00    -0.304 N 
ATOM     25  H   UNL     1      24.762   2.443 -24.810  0.00  0.00    +0.149 HD
BRANCH  24  26
ATOM     26  C   UNL     1      26.465   2.216 -26.052  0.00  0.00    +0.180 C 
BRANCH  26  27
ATOM     27  C   UNL     1      25.780   2.940 -27.142  0.00  0.00    +0.142 A 
ATOM     28  O   UNL     1      26.015   2.600 -28.449  0.00  0.00    -0.446 OA
ATOM     29  C   UNL     1      24.874   3.979 -27.139  0.00  0.00    +0.157 A 
ATOM     30  C   UNL     1      25.227   3.467 -29.151  0.00  0.00    +0.308 A 
ATOM     31  N   UNL     1      24.527   4.307 -28.422  0.00  0.00    -0.224 NA
ENDBRANCH  26  27
ENDBRANCH  24  26
ENDBRANCH   2  22
TORSDOF 4
ENDMDL
MODEL 3
REMARK VINA RESULT:    -9.891      9.016     15.557
REMARK INTER + INTRA:         -12.293
REMARK INTER:                 -12.262
REMARK INTRA:                  -0.030
REMARK UNBOUND:                -0.088
REMARK  Name = CTX-1020772
REMARK  5 active torsions:
REMARK  status: ('A' for Active; 'I' for Inactive)
REMARK    1  A    between atoms: C_2  and  C_4
REMARK    2  A    between atoms: N_9  and  C_12
REMARK    3  A    between atoms: C_12  and  C_14
REMARK    4  A    between atoms: C_15  and  C_19
REMARK    5  A    between atoms: C_23  and  C_26
REMARK                            x       y       z     vdW  Elec       q    Type
REMARK                         _______ _______ _______ _____ _____    ______ ____
ROOT
ATOM      1  S   UNL     1      22.722   1.172 -18.241  0.00  0.00    -0.088 S 
ATOM      2  C   UNL     1      21.941  -0.161 -18.974  0.00  0.00    +0.074 A 
ATOM      3  C   UNL     1      24.021   1.089 -19.334  0.00  0.00    -0.003 A 
ATOM      4  C   UNL     1      22.677  -0.641 -20.051  0.00  0.00    +0.026 A 
ATOM      5  C   UNL     1      23.884   0.087 -20.276  0.00  0.00    -0.019 A 
ATOM      6  C   UNL     1      25.184   2.022 -19.286  0.00  0.00    +0.062 C 
ATOM      7  C   UNL     1      24.912  -0.186 -21.347  0.00  0.00    +0.144 C 
ATOM      8  C   UNL     1      26.345   1.401 -20.076  0.00  0.00    +0.113 C 
ATOM      9  N   UNL     1      25.886   0.915 -21.392  0.00  0.00    -0.290 N 
ATOM     10  C   UNL     1      26.176   1.502 -22.633  0.00  0.00    +0.283 C 
ATOM     11  O   UNL     1      25.583   1.136 -23.649  0.00  0.00    -0.267 OA
ENDROOT
BRANCH  10  12
ATOM     12  C   UNL     1      27.181   2.558 -22.696  0.00  0.00    +0.194 A 
ATOM     13  O   UNL     1      28.272   2.486 -21.874  0.00  0.00    -0.450 OA
ATOM     14  C   UNL     1      27.300   3.671 -23.524  0.00  0.00    +0.008 A 
ATOM     15  C   UNL     1      29.040   3.576 -22.099  0.00  0.00    +0.136 A 
ATOM     16  C   UNL     1      28.515   4.324 -23.140  0.00  0.00    +0.024 A 
ATOM     17  C   UNL     1      26.361   4.131 -24.579  0.00  0.00    +0.048 C 
ATOM     18  C   UNL     1      30.195   3.901 -21.391  0.00  0.00    +0.047 A 
ATOM     19  C   UNL     1      29.223   5.469 -23.553  0.00  0.00    +0.012 A 
ATOM     20  C   UNL     1      30.877   5.045 -21.811  0.00  0.00    +0.004 A 
ATOM     21  C   UNL     1      30.408   5.809 -22.883  0.00  0.00    +0.001 A 
ENDBRANCH  10  12
BRANCH   2  22
ATOM     22  C   UNL     1      20.678  -0.704 -18.505  0.00  0.00    +0.251 C 
ATOM     23  O   UNL     1      19.829  -1.141 -19.284  0.00  0.00    -0.270 OA
ATOM     24  N   UNL     1      20.441  -0.725 -17.144  0.00  0.00    -0.304 N 
ATOM     25  H   UNL     1      21.114  -0.382 -16.513  0.00  0.00    +0.149 HD
BRANCH  24  26
ATOM     26  C   UNL     1      19.192  -1.262 -16.667  0.00  0.00    +0.180 C 
BRANCH  26  27
ATOM     27  C   UNL     1      18.541  -0.424 -15.640  0.00  0.00    +0.142 A 
ATOM     28  O   UNL     1      18.562   0.941 -15.750  0.00  0.00    -0.446 OA
ATOM     29  C   UNL     1      17.855  -0.738 -14.487  0.00  0.00    +0.157 A 
ATOM     30  C   UNL     1      17.881   1.362 -14.644  0.00  0.00    +0.308 A 
ATOM     31  N   UNL     1      17.438   0.404 -13.859  0.00  0.00    -0.224 NA
ENDBRANCH  26  27
ENDBRANCH  24  26
ENDBRANCH   2  22
TORSDOF 4
ENDMDL
MODEL 4
REMARK VINA RESULT:    -9.575      6.504     12.486
REMARK INTER + INTRA:         -11.902
REMARK INTER:                 -11.324
REMARK INTRA:                  -0.578
REMARK UNBOUND:                -0.088
REMARK  Name = CTX-1020772
REMARK  5 active torsions:
REMARK  status: ('A' for Active; 'I' for Inactive)
REMARK    1  A    between atoms: C_2  and  C_4
REMARK    2  A    between atoms: N_9  and  C_12
REMARK    3  A    between atoms: C_12  and  C_14
REMARK    4  A    between atoms: C_15  and  C_19
REMARK    5  A    between atoms: C_23  and  C_26
REMARK                            x       y       z     vdW  Elec       q    Type
REMARK                         _______ _______ _______ _____ _____    ______ ____
ROOT
ATOM      1  S   UNL     1      26.837   1.307 -19.741  0.00  0.00    -0.088 S 
ATOM      2  C   UNL     1      25.430   1.044 -20.677  0.00  0.00    +0.074 A 
ATOM      3  C   UNL     1      27.556   2.232 -20.972  0.00  0.00    -0.003 A 
ATOM      4  C   UNL     1      25.525   1.678 -21.910  0.00  0.00    +0.026 A 
ATOM      5  C   UNL     1      26.754   2.381 -22.088  0.00  0.00    -0.019 A 
ATOM      6  C   UNL     1      28.915   2.836 -20.846  0.00  0.00    +0.062 C 
ATOM      7  C   UNL     1      27.178   3.156 -23.312  0.00  0.00    +0.144 C 
ATOM      8  C   UNL     1      29.427   3.188 -22.250  0.00  0.00    +0.113 C 
ATOM      9  N   UNL     1      28.400   3.919 -23.019  0.00  0.00    -0.290 N 
ATOM     10  C   UNL     1      28.431   5.284 -23.343  0.00  0.00    +0.283 C 
ATOM     11  O   UNL     1      27.434   5.836 -23.812  0.00  0.00    -0.267 OA
ENDROOT
BRANCH  10  12
ATOM     12  C   UNL     1      29.657   6.037 -23.105  0.00  0.00    +0.194 A 
ATOM     13  O   UNL     1      30.382   6.482 -24.177  0.00  0.00    -0.450 OA
ATOM     14  C   UNL     1      30.252   6.486 -21.929  0.00  0.00    +0.008 A 
ATOM     15  C   UNL     1      31.473   7.129 -23.707  0.00  0.00    +0.136 A 
ATOM     16  C   UNL     1      31.426   7.203 -22.324  0.00  0.00    +0.024 A 
ATOM     17  C   UNL     1      29.801   6.257 -20.532  0.00  0.00    +0.048 C 
ATOM     18  C   UNL     1      32.496   7.648 -24.495  0.00  0.00    +0.047 A 
ATOM     19  C   UNL     1      32.457   7.899 -21.665  0.00  0.00    +0.012 A 
ATOM     20  C   UNL     1      33.514   8.327 -23.821  0.00  0.00    +0.004 A 
ATOM     21  C   UNL     1      33.488   8.464 -22.431  0.00  0.00    +0.001 A 
ENDBRANCH  10  12
BRANCH   2  22
ATOM     22  C   UNL     1      24.303   0.250 -20.219  0.00  0.00    +0.251 C 
ATOM     23  O   UNL     1      24.210  -0.133 -19.051  0.00  0.00    -0.270 OA
ATOM     24  N   UNL     1      23.316  -0.069 -21.131  0.00  0.00    -0.304 N 
ATOM     25  H   UNL     1      23.379   0.236 -22.065  0.00  0.00    +0.149 HD
BRANCH  24  26
ATOM     26  C   UNL     1      22.193  -0.856 -20.688  0.00  0.00    +0.180 C 
BRANCH  26  27
ATOM     27  C   UNL     1      22.174  -2.225 -21.241  0.00  0.00    +0.142 A 
ATOM     28  O   UNL     1      23.349  -2.862 -21.545  0.00  0.00    -0.446 OA
ATOM     29  C   UNL     1      21.143  -3.086 -21.550  0.00  0.00    +0.157 A 
ATOM     30  C   UNL     1      22.941  -4.075 -22.022  0.00  0.00    +0.308 A 
ATOM     31  N   UNL     1      21.639  -4.261 -22.046  0.00  0.00    -0.224 NA
ENDBRANCH  26  27
ENDBRANCH  24  26
ENDBRANCH   2  22
TORSDOF 4
ENDMDL
MODEL 5
REMARK VINA RESULT:    -9.052      7.903     11.217
REMARK INTER + INTRA:         -11.257
REMARK INTER:                 -10.632
REMARK INTRA:                  -0.625
REMARK UNBOUND:                -0.088
REMARK  Name = CTX-1020772
REMARK  5 active torsions:
REMARK  status: ('A' for Active; 'I' for Inactive)
REMARK    1  A    between atoms: C_2  and  C_4
REMARK    2  A    between atoms: N_9  and  C_12
REMARK    3  A    between atoms: C_12  and  C_14
REMARK    4  A    between atoms: C_15  and  C_19
REMARK    5  A    between atoms: C_23  and  C_26
REMARK                            x       y       z     vdW  Elec       q    Type
REMARK                         _______ _______ _______ _____ _____    ______ ____
ROOT
ATOM      1  S   UNL     1      26.480   1.932 -22.600  0.00  0.00    -0.088 S 
ATOM      2  C   UNL     1      27.737   2.449 -21.562  0.00  0.00    +0.074 A 
ATOM      3  C   UNL     1      25.565   1.339 -21.297  0.00  0.00    -0.003 A 
ATOM      4  C   UNL     1      27.433   2.173 -20.235  0.00  0.00    +0.026 A 
ATOM      5  C   UNL     1      26.166   1.536 -20.068  0.00  0.00    -0.019 A 
ATOM      6  C   UNL     1      24.236   0.685 -21.469  0.00  0.00    +0.062 C 
ATOM      7  C   UNL     1      25.549   1.089 -18.765  0.00  0.00    +0.144 C 
ATOM      8  C   UNL     1      23.916  -0.120 -20.200  0.00  0.00    +0.113 C 
ATOM      9  N   UNL     1      24.151   0.691 -18.989  0.00  0.00    -0.290 N 
ATOM     10  C   UNL     1      23.160   1.223 -18.150  0.00  0.00    +0.283 C 
ATOM     11  O   UNL     1      23.455   2.048 -17.283  0.00  0.00    -0.267 OA
ENDROOT
BRANCH  10  12
ATOM     12  C   UNL     1      21.778   0.791 -18.330  0.00  0.00    +0.194 A 
ATOM     13  O   UNL     1      21.407  -0.448 -17.884  0.00  0.00    -0.450 OA
ATOM     14  C   UNL     1      20.664   1.452 -18.839  0.00  0.00    +0.008 A 
ATOM     15  C   UNL     1      20.098  -0.624 -18.179  0.00  0.00    +0.136 A 
ATOM     16  C   UNL     1      19.572   0.533 -18.730  0.00  0.00    +0.024 A 
ATOM     17  C   UNL     1      20.596   2.821 -19.413  0.00  0.00    +0.048 C 
ATOM     18  C   UNL     1      19.380  -1.797 -17.959  0.00  0.00    +0.047 A 
ATOM     19  C   UNL     1      18.199   0.550 -19.044  0.00  0.00    +0.012 A 
ATOM     20  C   UNL     1      18.023  -1.762 -18.286  0.00  0.00    +0.004 A 
ATOM     21  C   UNL     1      17.438  -0.604 -18.806  0.00  0.00    +0.001 A 
ENDBRANCH  10  12
BRANCH   2  22
ATOM     22  C   UNL     1      28.954   3.084 -22.036  0.00  0.00    +0.251 C 
ATOM     23  O   UNL     1      30.047   2.518 -21.977  0.00  0.00    -0.270 OA
ATOM     24  N   UNL     1      28.864   4.355 -22.569  0.00  0.00    -0.304 N 
ATOM     25  H   UNL     1      27.995   4.814 -22.625  0.00  0.00    +0.149 HD
BRANCH  24  26
ATOM     26  C   UNL     1      30.066   4.994 -23.043  0.00  0.00    +0.180 C 
BRANCH  26  27
ATOM     27  C   UNL     1      30.837   5.668 -21.980  0.00  0.00    +0.142 A 
ATOM     28  O   UNL     1      32.198   5.520 -21.915  0.00  0.00    -0.446 OA
ATOM     29  C   UNL     1      30.459   6.488 -20.938  0.00  0.00    +0.157 A 
ATOM     30  C   UNL     1      32.550   6.268 -20.829  0.00  0.00    +0.308 A 
ATOM     31  N   UNL     1      31.555   6.866 -20.211  0.00  0.00    -0.224 NA
ENDBRANCH  26  27
ENDBRANCH  24  26
ENDBRANCH   2  22
TORSDOF 4
ENDMDL
