MODEL 1
REMARK VINA RESULT:   -12.844      0.000      0.000
REMARK INTER + INTRA:         -17.446
REMARK INTER:                 -16.599
REMARK INTRA:                  -0.848
REMARK UNBOUND:                -0.848
REMARK  Name = CTX-1020810
REMARK  7 active torsions:
REMARK  status: ('A' for Active; 'I' for Inactive)
REMARK    1  A    between atoms: C_3  and  C_7
REMARK    2  A    between atoms: C_6  and  C_11
REMARK    3  A    between atoms: C_21  and  C_23
REMARK    4  A    between atoms: N_26  and  C_27
REMARK    5  A    between atoms: C_27  and  C_28
REMARK    6  A    between atoms: C_33  and  N_34
REMARK    7  A    between atoms: N_39  and  C_40
REMARK                            x       y       z     vdW  Elec       q    Type
REMARK                         _______ _______ _______ _____ _____    ______ ____
ROOT
ATOM      1  C   UNL     1      25.862   1.887 -24.708  0.00  0.00    +0.254 C 
ATOM      2  O   UNL     1      24.971   1.171 -24.237  0.00  0.00    -0.269 OA
ATOM      3  N   UNL     1      26.882   2.356 -23.787  0.00  0.00    -0.291 N 
ATOM      4  C   UNL     1      27.903   3.436 -24.012  0.00  0.00    +0.163 C 
ATOM      5  C   UNL     1      26.636   1.899 -22.422  0.00  0.00    +0.113 C 
ATOM      6  C   UNL     1      28.782   3.909 -22.822  0.00  0.00    +0.063 A 
ATOM      7  C   UNL     1      27.641   2.206 -21.327  0.00  0.00    +0.056 C 
ATOM      8  N   UNL     1      29.753   4.891 -23.015  0.00  0.00    -0.245 NA
ATOM      9  C   UNL     1      28.615   3.302 -21.579  0.00  0.00    -0.023 A 
ATOM     10  C   UNL     1      30.548   5.215 -21.936  0.00  0.00    +0.126 A 
ATOM     11  C   UNL     1      29.434   3.680 -20.510  0.00  0.00    +0.008 A 
ATOM     12  C   UNL     1      30.410   4.637 -20.684  0.00  0.00    +0.033 A 
ENDROOT
BRANCH   1  15
ATOM     13  S   UNL     1      25.201   3.674 -26.732  0.00  0.00    -0.081 S 
ATOM     14  C   UNL     1      25.495   3.327 -28.376  0.00  0.00    +0.055 A 
ATOM     15  C   UNL     1      25.814   2.188 -26.162  0.00  0.00    +0.078 A 
ATOM     16  C   UNL     1      25.180   4.135 -29.480  0.00  0.00    +0.138 A 
ATOM     17  C   UNL     1      26.138   2.104 -28.530  0.00  0.00    -0.004 A 
ATOM     18  C   UNL     1      26.360   1.453 -27.241  0.00  0.00    -0.023 A 
ATOM     19  F   UNL     1      24.565   5.313 -29.314  0.00  0.00    -0.204 F 
ATOM     20  C   UNL     1      25.501   3.717 -30.772  0.00  0.00    +0.039 A 
ATOM     21  C   UNL     1      26.481   1.708 -29.861  0.00  0.00    +0.009 A 
ATOM     22  C   UNL     1      27.102   0.138 -27.197  0.00  0.00    +0.046 C 
ATOM     23  C   UNL     1      26.153   2.510 -30.962  0.00  0.00    +0.003 A 
ENDBRANCH   1  15
BRANCH  10  24
ATOM     24  C   UNL     1      31.669   6.251 -21.999  0.00  0.00    +0.263 C 
ATOM     25  O   UNL     1      32.400   6.416 -21.018  0.00  0.00    -0.269 OA
ATOM     26  N   UNL     1      31.832   7.003 -23.138  0.00  0.00    -0.306 N 
ATOM     27  H   UNL     1      31.306   6.804 -23.945  0.00  0.00    +0.149 HD
BRANCH  26  28
ATOM     28  C   UNL     1      32.791   8.097 -23.134  0.00  0.00    +0.140 C 
BRANCH  28  29
ATOM     29  C   UNL     1      33.692   8.063 -24.334  0.00  0.00    -0.030 A 
ATOM     30  C   UNL     1      35.079   8.096 -24.188  0.00  0.00    +0.007 A 
ATOM     31  C   UNL     1      33.154   7.976 -25.624  0.00  0.00    +0.007 A 
ATOM     32  C   UNL     1      35.897   8.117 -25.316  0.00  0.00    +0.023 A 
ATOM     33  C   UNL     1      33.983   8.016 -26.750  0.00  0.00    +0.023 A 
ATOM     34  C   UNL     1      35.370   8.115 -26.618  0.00  0.00    +0.030 A 
BRANCH  34  35
ATOM     35  N   UNL     1      36.248   8.170 -27.691  0.00  0.00    -0.333 N 
ATOM     36  C   UNL     1      37.401   7.264 -27.799  0.00  0.00    +0.086 C 
ATOM     37  C   UNL     1      35.651   8.488 -29.004  0.00  0.00    +0.086 C 
ATOM     38  C   UNL     1      38.455   7.903 -28.746  0.00  0.00    -0.060 C 
ATOM     39  C   UNL     1      36.726   9.150 -29.888  0.00  0.00    -0.060 C 
ATOM     40  N   UNL     1      37.902   8.270 -30.075  0.00  0.00    +0.380 N 
ATOM     41  C   UNL     1      38.908   8.944 -30.892  0.00  0.00    -0.096 C 
ATOM     42  H   UNL     1      37.623   7.419 -30.562  0.00  0.00    -0.082 HD
ENDBRANCH  34  35
ENDBRANCH  28  29
ENDBRANCH  26  28
ENDBRANCH  10  24
TORSDOF 5
ENDMDL
MODEL 2
REMARK VINA RESULT:   -12.392      6.062      8.738
REMARK INTER + INTRA:         -16.862
REMARK INTER:                 -16.169
REMARK INTRA:                  -0.693
REMARK UNBOUND:                -0.848
REMARK  Name = CTX-1020810
REMARK  7 active torsions:
REMARK  status: ('A' for Active; 'I' for Inactive)
REMARK    1  A    between atoms: C_3  and  C_7
REMARK    2  A    between atoms: C_6  and  C_11
REMARK    3  A    between atoms: C_21  and  C_23
REMARK    4  A    between atoms: N_26  and  C_27
REMARK    5  A    between atoms: C_27  and  C_28
REMARK    6  A    between atoms: C_33  and  N_34
REMARK    7  A    between atoms: N_39  and  C_40
REMARK                            x       y       z     vdW  Elec       q    Type
REMARK                         _______ _______ _______ _____ _____    ______ ____
ROOT
ATOM      1  C   UNL     1      20.681  -0.100 -18.468  0.00  0.00    +0.254 C 
ATOM      2  O   UNL     1      19.499   0.206 -18.276  0.00  0.00    -0.269 OA
ATOM      3  N   UNL     1      21.688   0.762 -17.872  0.00  0.00    -0.291 N 
ATOM      4  C   UNL     1      23.163   0.795 -18.159  0.00  0.00    +0.163 C 
ATOM      5  C   UNL     1      21.088   1.886 -17.157  0.00  0.00    +0.113 C 
ATOM      6  C   UNL     1      24.030   1.927 -17.544  0.00  0.00    +0.063 A 
ATOM      7  C   UNL     1      21.970   2.850 -16.386  0.00  0.00    +0.056 C 
ATOM      8  N   UNL     1      25.405   1.961 -17.776  0.00  0.00    -0.245 NA
ATOM      9  C   UNL     1      23.420   2.872 -16.722  0.00  0.00    -0.023 A 
ATOM     10  C   UNL     1      26.129   2.949 -17.142  0.00  0.00    +0.126 A 
ATOM     11  C   UNL     1      24.195   3.866 -16.118  0.00  0.00    +0.008 A 
ATOM     12  C   UNL     1      25.558   3.908 -16.321  0.00  0.00    +0.033 A 
ENDROOT
BRANCH   1  15
ATOM     13  S   UNL     1      21.847  -1.225 -20.727  0.00  0.00    -0.081 S 
ATOM     14  C   UNL     1      21.802  -2.903 -21.027  0.00  0.00    +0.055 A 
ATOM     15  C   UNL     1      20.962  -1.317 -19.272  0.00  0.00    +0.078 A 
ATOM     16  C   UNL     1      22.328  -3.578 -22.140  0.00  0.00    +0.138 A 
ATOM     17  C   UNL     1      21.180  -3.588 -19.989  0.00  0.00    -0.004 A 
ATOM     18  C   UNL     1      20.721  -2.673 -18.946  0.00  0.00    -0.023 A 
ATOM     19  F   UNL     1      22.928  -2.904 -23.129  0.00  0.00    -0.204 F 
ATOM     20  C   UNL     1      22.225  -4.966 -22.234  0.00  0.00    +0.039 A 
ATOM     21  C   UNL     1      21.110  -5.013 -20.094  0.00  0.00    +0.009 A 
ATOM     22  C   UNL     1      20.071  -3.236 -17.704  0.00  0.00    +0.046 C 
ATOM     23  C   UNL     1      21.623  -5.682 -21.213  0.00  0.00    +0.003 A 
ENDBRANCH   1  15
BRANCH  10  24
ATOM     24  C   UNL     1      27.643   3.098 -17.278  0.00  0.00    +0.263 C 
ATOM     25  O   UNL     1      28.337   2.098 -17.481  0.00  0.00    -0.269 OA
ATOM     26  N   UNL     1      28.215   4.341 -17.146  0.00  0.00    -0.306 N 
ATOM     27  H   UNL     1      27.650   5.144 -17.074  0.00  0.00    +0.149 HD
BRANCH  26  28
ATOM     28  C   UNL     1      29.666   4.454 -17.112  0.00  0.00    +0.140 C 
BRANCH  28  29
ATOM     29  C   UNL     1      30.221   4.993 -18.398  0.00  0.00    -0.030 A 
ATOM     30  C   UNL     1      30.935   6.190 -18.422  0.00  0.00    +0.007 A 
ATOM     31  C   UNL     1      30.049   4.288 -19.596  0.00  0.00    +0.007 A 
ATOM     32  C   UNL     1      31.397   6.700 -19.635  0.00  0.00    +0.023 A 
ATOM     33  C   UNL     1      30.500   4.818 -20.810  0.00  0.00    +0.023 A 
ATOM     34  C   UNL     1      31.160   6.049 -20.856  0.00  0.00    +0.030 A 
BRANCH  34  35
ATOM     35  N   UNL     1      31.622   6.635 -22.024  0.00  0.00    -0.333 N 
ATOM     36  C   UNL     1      30.716   7.305 -22.969  0.00  0.00    +0.086 C 
ATOM     37  C   UNL     1      32.943   7.291 -21.945  0.00  0.00    +0.086 C 
ATOM     38  C   UNL     1      31.394   7.355 -24.367  0.00  0.00    -0.060 C 
ATOM     39  C   UNL     1      33.585   7.280 -23.346  0.00  0.00    -0.060 C 
ATOM     40  N   UNL     1      32.741   7.979 -24.342  0.00  0.00    +0.380 N 
ATOM     41  C   UNL     1      33.369   7.922 -25.659  0.00  0.00    -0.096 C 
ATOM     42  H   UNL     1      32.644   8.961 -24.084  0.00  0.00    -0.082 HD
ENDBRANCH  34  35
ENDBRANCH  28  29
ENDBRANCH  26  28
ENDBRANCH  10  24
TORSDOF 5
ENDMDL
MODEL 3
REMARK VINA RESULT:   -11.506      6.756      9.575
REMARK INTER + INTRA:         -15.717
REMARK INTER:                 -14.903
REMARK INTRA:                  -0.815
REMARK UNBOUND:                -0.848
REMARK  Name = CTX-1020810
REMARK  7 active torsions:
REMARK  status: ('A' for Active; 'I' for Inactive)
REMARK    1  A    between atoms: C_3  and  C_7
REMARK    2  A    between atoms: C_6  and  C_11
REMARK    3  A    between atoms: C_21  and  C_23
REMARK    4  A    between atoms: N_26  and  C_27
REMARK    5  A    between atoms: C_27  and  C_28
REMARK    6  A    between atoms: C_33  and  N_34
REMARK    7  A    between atoms: N_39  and  C_40
REMARK                            x       y       z     vdW  Elec       q    Type
REMARK                         _______ _______ _______ _____ _____    ______ ____
ROOT
ATOM      1  C   UNL     1      20.127  -0.365 -18.852  0.00  0.00    +0.254 C 
ATOM      2  O   UNL     1      18.945  -0.073 -19.064  0.00  0.00    -0.269 OA
ATOM      3  N   UNL     1      20.911   0.586 -18.084  0.00  0.00    -0.291 N 
ATOM      4  C   UNL     1      22.404   0.628 -17.913  0.00  0.00    +0.163 C 
ATOM      5  C   UNL     1      20.131   1.766 -17.719  0.00  0.00    +0.113 C 
ATOM      6  C   UNL     1      23.052   1.846 -17.199  0.00  0.00    +0.063 A 
ATOM      7  C   UNL     1      20.744   2.835 -16.834  0.00  0.00    +0.056 C 
ATOM      8  N   UNL     1      24.432   1.893 -17.007  0.00  0.00    -0.245 NA
ATOM      9  C   UNL     1      22.227   2.860 -16.716  0.00  0.00    -0.023 A 
ATOM     10  C   UNL     1      24.936   2.966 -16.303  0.00  0.00    +0.126 A 
ATOM     11  C   UNL     1      22.790   3.938 -16.025  0.00  0.00    +0.008 A 
ATOM     12  C   UNL     1      24.150   3.995 -15.810  0.00  0.00    +0.033 A 
ENDROOT
BRANCH   1  15
ATOM     13  S   UNL     1      20.306  -3.126 -18.583  0.00  0.00    -0.081 S 
ATOM     14  C   UNL     1      21.107  -4.097 -19.734  0.00  0.00    +0.055 A 
ATOM     15  C   UNL     1      20.630  -1.657 -19.387  0.00  0.00    +0.078 A 
ATOM     16  C   UNL     1      21.285  -5.489 -19.690  0.00  0.00    +0.138 A 
ATOM     17  C   UNL     1      21.577  -3.338 -20.800  0.00  0.00    -0.004 A 
ATOM     18  C   UNL     1      21.269  -1.920 -20.622  0.00  0.00    -0.023 A 
ATOM     19  F   UNL     1      20.823  -6.206 -18.658  0.00  0.00    -0.204 F 
ATOM     20  C   UNL     1      21.954  -6.145 -20.723  0.00  0.00    +0.039 A 
ATOM     21  C   UNL     1      22.236  -4.036 -21.861  0.00  0.00    +0.009 A 
ATOM     22  C   UNL     1      21.647  -0.941 -21.707  0.00  0.00    +0.046 C 
ATOM     23  C   UNL     1      22.424  -5.423 -21.807  0.00  0.00    +0.003 A 
ENDBRANCH   1  15
BRANCH  10  24
ATOM     24  C   UNL     1      26.421   3.142 -15.990  0.00  0.00    +0.263 C 
ATOM     25  O   UNL     1      26.793   3.191 -14.814  0.00  0.00    -0.269 OA
ATOM     26  N   UNL     1      27.319   3.271 -17.022  0.00  0.00    -0.306 N 
ATOM     27  H   UNL     1      27.029   3.141 -17.954  0.00  0.00    +0.149 HD
BRANCH  26  28
ATOM     28  C   UNL     1      28.704   3.602 -16.721  0.00  0.00    +0.140 C 
BRANCH  28  29
ATOM     29  C   UNL     1      29.374   4.321 -17.855  0.00  0.00    -0.030 A 
ATOM     30  C   UNL     1      29.542   3.702 -19.094  0.00  0.00    +0.007 A 
ATOM     31  C   UNL     1      29.822   5.637 -17.696  0.00  0.00    +0.007 A 
ATOM     32  C   UNL     1      30.214   4.367 -20.118  0.00  0.00    +0.023 A 
ATOM     33  C   UNL     1      30.511   6.289 -18.725  0.00  0.00    +0.023 A 
ATOM     34  C   UNL     1      30.744   5.656 -19.948  0.00  0.00    +0.030 A 
BRANCH  34  35
ATOM     35  N   UNL     1      31.428   6.239 -21.004  0.00  0.00    -0.333 N 
ATOM     36  C   UNL     1      32.863   6.547 -20.924  0.00  0.00    +0.086 C 
ATOM     37  C   UNL     1      31.011   5.823 -22.358  0.00  0.00    +0.086 C 
ATOM     38  C   UNL     1      33.201   7.648 -21.969  0.00  0.00    -0.060 C 
ATOM     39  C   UNL     1      31.334   6.962 -23.345  0.00  0.00    -0.060 C 
ATOM     40  N   UNL     1      32.777   7.294 -23.348  0.00  0.00    +0.380 N 
ATOM     41  C   UNL     1      33.037   8.394 -24.273  0.00  0.00    -0.096 C 
ATOM     42  H   UNL     1      33.317   6.488 -23.662  0.00  0.00    -0.082 HD
ENDBRANCH  34  35
ENDBRANCH  28  29
ENDBRANCH  26  28
ENDBRANCH  10  24
TORSDOF 5
ENDMDL
MODEL 4
REMARK VINA RESULT:   -11.055      7.192     11.579
REMARK INTER + INTRA:         -15.134
REMARK INTER:                 -14.696
REMARK INTRA:                  -0.438
REMARK UNBOUND:                -0.848
REMARK  Name = CTX-1020810
REMARK  7 active torsions:
REMARK  status: ('A' for Active; 'I' for Inactive)
REMARK    1  A    between atoms: C_3  and  C_7
REMARK    2  A    between atoms: C_6  and  C_11
REMARK    3  A    between atoms: C_21  and  C_23
REMARK    4  A    between atoms: N_26  and  C_27
REMARK    5  A    between atoms: C_27  and  C_28
REMARK    6  A    between atoms: C_33  and  N_34
REMARK    7  A    between atoms: N_39  and  C_40
REMARK                            x       y       z     vdW  Elec       q    Type
REMARK                         _______ _______ _______ _____ _____    ______ ____
ROOT
ATOM      1  C   UNL     1      20.067  -1.067 -16.559  0.00  0.00    +0.254 C 
ATOM      2  O   UNL     1      19.661  -2.023 -15.889  0.00  0.00    -0.269 OA
ATOM      3  N   UNL     1      20.462  -1.347 -17.929  0.00  0.00    -0.291 N 
ATOM      4  C   UNL     1      21.233  -0.461 -18.866  0.00  0.00    +0.163 C 
ATOM      5  C   UNL     1      20.327  -2.764 -18.256  0.00  0.00    +0.113 C 
ATOM      6  C   UNL     1      21.713  -1.032 -20.228  0.00  0.00    +0.063 A 
ATOM      7  C   UNL     1      20.603  -3.244 -19.669  0.00  0.00    +0.056 C 
ATOM      8  N   UNL     1      22.407  -0.220 -21.124  0.00  0.00    -0.245 NA
ATOM      9  C   UNL     1      21.395  -2.349 -20.555  0.00  0.00    -0.023 A 
ATOM     10  C   UNL     1      22.741  -0.766 -22.345  0.00  0.00    +0.126 A 
ATOM     11  C   UNL     1      21.774  -2.863 -21.799  0.00  0.00    +0.008 A 
ATOM     12  C   UNL     1      22.446  -2.072 -22.706  0.00  0.00    +0.033 A 
ENDROOT
BRANCH   1  15
ATOM     13  S   UNL     1      21.469   1.278 -16.047  0.00  0.00    -0.081 S 
ATOM     14  C   UNL     1      20.791   2.560 -15.152  0.00  0.00    +0.055 A 
ATOM     15  C   UNL     1      20.100   0.270 -15.913  0.00  0.00    +0.078 A 
ATOM     16  C   UNL     1      21.410   3.773 -14.808  0.00  0.00    +0.138 A 
ATOM     17  C   UNL     1      19.476   2.288 -14.791  0.00  0.00    -0.004 A 
ATOM     18  C   UNL     1      19.055   0.971 -15.264  0.00  0.00    -0.023 A 
ATOM     19  F   UNL     1      22.675   4.021 -15.167  0.00  0.00    -0.204 F 
ATOM     20  C   UNL     1      20.713   4.736 -14.079  0.00  0.00    +0.039 A 
ATOM     21  C   UNL     1      18.771   3.302 -14.068  0.00  0.00    +0.009 A 
ATOM     22  C   UNL     1      17.635   0.518 -15.021  0.00  0.00    +0.046 C 
ATOM     23  C   UNL     1      19.397   4.505 -13.715  0.00  0.00    +0.003 A 
ENDBRANCH   1  15
BRANCH  10  24
ATOM     24  C   UNL     1      23.478   0.007 -23.438  0.00  0.00    +0.263 C 
ATOM     25  O   UNL     1      23.092  -0.078 -24.608  0.00  0.00    -0.269 OA
ATOM     26  N   UNL     1      24.576   0.764 -23.108  0.00  0.00    -0.306 N 
ATOM     27  H   UNL     1      24.823   0.898 -22.165  0.00  0.00    +0.149 HD
BRANCH  26  28
ATOM     28  C   UNL     1      25.369   1.364 -24.171  0.00  0.00    +0.140 C 
BRANCH  28  29
ATOM     29  C   UNL     1      26.407   2.308 -23.638  0.00  0.00    -0.030 A 
ATOM     30  C   UNL     1      26.649   3.531 -24.263  0.00  0.00    +0.007 A 
ATOM     31  C   UNL     1      27.136   1.985 -22.487  0.00  0.00    +0.007 A 
ATOM     32  C   UNL     1      27.653   4.370 -23.783  0.00  0.00    +0.023 A 
ATOM     33  C   UNL     1      28.154   2.827 -22.024  0.00  0.00    +0.023 A 
ATOM     34  C   UNL     1      28.450   4.024 -22.680  0.00  0.00    +0.030 A 
BRANCH  34  35
ATOM     35  N   UNL     1      29.452   4.897 -22.283  0.00  0.00    -0.333 N 
ATOM     36  C   UNL     1      29.281   6.356 -22.347  0.00  0.00    +0.086 C 
ATOM     37  C   UNL     1      30.264   4.472 -21.125  0.00  0.00    +0.086 C 
ATOM     38  C   UNL     1      30.684   7.025 -22.379  0.00  0.00    -0.060 C 
ATOM     39  C   UNL     1      31.652   5.134 -21.225  0.00  0.00    -0.060 C 
ATOM     40  N   UNL     1      31.556   6.611 -21.251  0.00  0.00    +0.380 N 
ATOM     41  C   UNL     1      32.887   7.198 -21.376  0.00  0.00    -0.096 C 
ATOM     42  H   UNL     1      31.147   6.946 -20.379  0.00  0.00    -0.082 HD
ENDBRANCH  34  35
ENDBRANCH  28  29
ENDBRANCH  26  28
ENDBRANCH  10  24
TORSDOF 5
ENDMDL
