MODEL 1
REMARK VINA RESULT:   -11.597      0.000      0.000
REMARK INTER + INTRA:         -15.945
REMARK INTER:                 -14.987
REMARK INTRA:                  -0.958
REMARK UNBOUND:                -0.958
REMARK  Name = CTX-1020912
REMARK  7 active torsions:
REMARK  status: ('A' for Active; 'I' for Inactive)
REMARK    1  A    between atoms: C_2  and  C_4
REMARK    2  A    between atoms: C_5  and  C_10
REMARK    3  A    between atoms: C_18  and  C_20
REMARK    4  A    between atoms: N_23  and  C_24
REMARK    5  A    between atoms: C_24  and  C_25
REMARK    6  A    between atoms: C_30  and  N_31
REMARK    7  A    between atoms: N_36  and  C_37
REMARK                            x       y       z     vdW  Elec       q    Type
REMARK                         _______ _______ _______ _____ _____    ______ ____
ROOT
ATOM      1  C   UNL     1      25.776   1.578 -21.335  0.00  0.00    -0.009 A 
ATOM      2  C   UNL     1      27.199   1.729 -21.152  0.00  0.00    +0.037 A 
ATOM      3  C   UNL     1      25.165   2.686 -21.881  0.00  0.00    +0.010 A 
ATOM      4  C   UNL     1      27.920   2.833 -21.762  0.00  0.00    +0.072 A 
ATOM      5  C   UNL     1      25.858   3.411 -22.812  0.00  0.00    +0.010 A 
ATOM      6  N   UNL     1      29.100   3.571 -21.481  0.00  0.00    -0.242 NA
ATOM      7  C   UNL     1      27.227   3.269 -22.873  0.00  0.00    +0.000 A 
ATOM      8  C   UNL     1      29.413   4.624 -22.338  0.00  0.00    +0.126 A 
ATOM      9  C   UNL     1      27.881   3.839 -23.937  0.00  0.00    +0.012 A 
ATOM     10  C   UNL     1      28.828   4.753 -23.589  0.00  0.00    +0.033 A 
ENDROOT
BRANCH   1  12
ATOM     11  S   UNL     1      24.753  -0.864 -22.315  0.00  0.00    -0.088 S 
ATOM     12  C   UNL     1      24.879   0.376 -21.133  0.00  0.00    +0.023 A 
ATOM     13  C   UNL     1      23.569  -1.768 -21.432  0.00  0.00    +0.020 A 
ATOM     14  C   UNL     1      24.013   0.088 -20.049  0.00  0.00    -0.028 A 
ATOM     15  C   UNL     1      23.261  -1.143 -20.227  0.00  0.00    -0.007 A 
ATOM     16  C   UNL     1      22.929  -2.976 -21.793  0.00  0.00    +0.015 A 
ATOM     17  C   UNL     1      23.749   0.874 -18.787  0.00  0.00    +0.045 C 
ATOM     18  C   UNL     1      22.289  -1.752 -19.375  0.00  0.00    +0.009 A 
ATOM     19  C   UNL     1      21.965  -3.538 -20.940  0.00  0.00    +0.001 A 
ATOM     20  C   UNL     1      21.646  -2.935 -19.735  0.00  0.00    +0.001 A 
ENDBRANCH   1  12
BRANCH   8  21
ATOM     21  C   UNL     1      30.345   5.783 -22.049  0.00  0.00    +0.263 C 
ATOM     22  O   UNL     1      31.416   5.526 -21.468  0.00  0.00    -0.269 OA
ATOM     23  N   UNL     1      30.144   7.056 -22.542  0.00  0.00    -0.306 N 
ATOM     24  H   UNL     1      29.309   7.297 -23.008  0.00  0.00    +0.149 HD
BRANCH  23  25
ATOM     25  C   UNL     1      31.214   8.036 -22.351  0.00  0.00    +0.140 C 
BRANCH  25  26
ATOM     26  C   UNL     1      32.241   8.119 -23.453  0.00  0.00    -0.030 A 
ATOM     27  C   UNL     1      33.563   8.472 -23.181  0.00  0.00    +0.007 A 
ATOM     28  C   UNL     1      31.932   7.761 -24.768  0.00  0.00    +0.007 A 
ATOM     29  C   UNL     1      34.530   8.507 -24.206  0.00  0.00    +0.023 A 
ATOM     30  C   UNL     1      32.912   7.791 -25.783  0.00  0.00    +0.023 A 
ATOM     31  C   UNL     1      34.240   8.183 -25.543  0.00  0.00    +0.030 A 
BRANCH  31  32
ATOM     32  N   UNL     1      35.188   8.330 -26.559  0.00  0.00    -0.333 N 
ATOM     33  C   UNL     1      34.771   8.689 -27.935  0.00  0.00    +0.086 C 
ATOM     34  C   UNL     1      36.561   8.795 -26.267  0.00  0.00    +0.086 C 
ATOM     35  C   UNL     1      35.795   8.154 -28.971  0.00  0.00    -0.060 C 
ATOM     36  C   UNL     1      37.557   8.272 -27.336  0.00  0.00    -0.060 C 
ATOM     37  N   UNL     1      37.175   8.628 -28.724  0.00  0.00    +0.380 N 
ATOM     38  C   UNL     1      38.109   8.032 -29.682  0.00  0.00    -0.096 C 
ATOM     39  H   UNL     1      37.214   9.640 -28.845  0.00  0.00    -0.082 HD
ENDBRANCH  31  32
ENDBRANCH  25  26
ENDBRANCH  23  25
ENDBRANCH   8  21
TORSDOF 5
ENDMDL
MODEL 2
REMARK VINA RESULT:   -11.150      3.958      5.426
REMARK INTER + INTRA:         -15.367
REMARK INTER:                 -14.670
REMARK INTRA:                  -0.697
REMARK UNBOUND:                -0.958
REMARK  Name = CTX-1020912
REMARK  7 active torsions:
REMARK  status: ('A' for Active; 'I' for Inactive)
REMARK    1  A    between atoms: C_2  and  C_4
REMARK    2  A    between atoms: C_5  and  C_10
REMARK    3  A    between atoms: C_18  and  C_20
REMARK    4  A    between atoms: N_23  and  C_24
REMARK    5  A    between atoms: C_24  and  C_25
REMARK    6  A    between atoms: C_30  and  N_31
REMARK    7  A    between atoms: N_36  and  C_37
REMARK                            x       y       z     vdW  Elec       q    Type
REMARK                         _______ _______ _______ _____ _____    ______ ____
ROOT
ATOM      1  C   UNL     1      23.433   2.460 -16.736  0.00  0.00    -0.009 A 
ATOM      2  C   UNL     1      24.299   3.326 -15.975  0.00  0.00    +0.037 A 
ATOM      3  C   UNL     1      23.952   2.084 -17.956  0.00  0.00    +0.010 A 
ATOM      4  C   UNL     1      25.687   3.522 -16.358  0.00  0.00    +0.072 A 
ATOM      5  C   UNL     1      25.304   1.880 -18.045  0.00  0.00    +0.010 A 
ATOM      6  N   UNL     1      26.660   4.545 -16.212  0.00  0.00    -0.242 NA
ATOM      7  C   UNL     1      26.118   2.426 -17.077  0.00  0.00    +0.000 A 
ATOM      8  C   UNL     1      27.906   4.329 -16.797  0.00  0.00    +0.126 A 
ATOM      9  C   UNL     1      27.437   2.043 -17.063  0.00  0.00    +0.012 A 
ATOM     10  C   UNL     1      28.320   3.069 -17.202  0.00  0.00    +0.033 A 
ENDROOT
BRANCH   1  12
ATOM     11  S   UNL     1      21.158   0.986 -17.529  0.00  0.00    -0.088 S 
ATOM     12  C   UNL     1      22.114   1.815 -16.367  0.00  0.00    +0.023 A 
ATOM     13  C   UNL     1      19.879   0.630 -16.418  0.00  0.00    +0.020 A 
ATOM     14  C   UNL     1      21.449   1.810 -15.116  0.00  0.00    -0.028 A 
ATOM     15  C   UNL     1      20.165   1.130 -15.151  0.00  0.00    -0.007 A 
ATOM     16  C   UNL     1      18.665  -0.054 -16.658  0.00  0.00    +0.015 A 
ATOM     17  C   UNL     1      21.863   2.420 -13.797  0.00  0.00    +0.045 C 
ATOM     18  C   UNL     1      19.206   0.934 -14.111  0.00  0.00    +0.009 A 
ATOM     19  C   UNL     1      17.736  -0.215 -15.617  0.00  0.00    +0.001 A 
ATOM     20  C   UNL     1      18.001   0.272 -14.348  0.00  0.00    +0.001 A 
ENDBRANCH   1  12
BRANCH   8  21
ATOM     21  C   UNL     1      28.945   5.380 -17.134  0.00  0.00    +0.263 C 
ATOM     22  O   UNL     1      29.037   6.359 -16.370  0.00  0.00    -0.269 OA
ATOM     23  N   UNL     1      29.887   5.219 -18.128  0.00  0.00    -0.306 N 
ATOM     24  H   UNL     1      29.847   4.457 -18.751  0.00  0.00    +0.149 HD
BRANCH  23  25
ATOM     25  C   UNL     1      30.951   6.220 -18.225  0.00  0.00    +0.140 C 
BRANCH  25  26
ATOM     26  C   UNL     1      31.421   6.554 -19.619  0.00  0.00    -0.030 A 
ATOM     27  C   UNL     1      32.779   6.563 -19.939  0.00  0.00    +0.007 A 
ATOM     28  C   UNL     1      30.517   6.780 -20.660  0.00  0.00    +0.007 A 
ATOM     29  C   UNL     1      33.213   6.834 -21.252  0.00  0.00    +0.023 A 
ATOM     30  C   UNL     1      30.966   7.040 -21.973  0.00  0.00    +0.023 A 
ATOM     31  C   UNL     1      32.328   7.096 -22.312  0.00  0.00    +0.030 A 
BRANCH  31  32
ATOM     32  N   UNL     1      32.784   7.469 -23.579  0.00  0.00    -0.333 N 
ATOM     33  C   UNL     1      31.831   7.683 -24.693  0.00  0.00    +0.086 C 
ATOM     34  C   UNL     1      34.009   8.282 -23.745  0.00  0.00    +0.086 C 
ATOM     35  C   UNL     1      32.521   7.417 -26.058  0.00  0.00    -0.060 C 
ATOM     36  C   UNL     1      34.658   8.020 -25.130  0.00  0.00    -0.060 C 
ATOM     37  N   UNL     1      33.732   8.239 -26.268  0.00  0.00    +0.380 N 
ATOM     38  C   UNL     1      34.384   7.893 -27.533  0.00  0.00    -0.096 C 
ATOM     39  H   UNL     1      33.471   9.225 -26.315  0.00  0.00    -0.082 HD
ENDBRANCH  31  32
ENDBRANCH  25  26
ENDBRANCH  23  25
ENDBRANCH   8  21
TORSDOF 5
ENDMDL
MODEL 3
REMARK VINA RESULT:   -11.079      2.971      4.364
REMARK INTER + INTRA:         -15.276
REMARK INTER:                 -14.592
REMARK INTRA:                  -0.684
REMARK UNBOUND:                -0.958
REMARK  Name = CTX-1020912
REMARK  7 active torsions:
REMARK  status: ('A' for Active; 'I' for Inactive)
REMARK    1  A    between atoms: C_2  and  C_4
REMARK    2  A    between atoms: C_5  and  C_10
REMARK    3  A    between atoms: C_18  and  C_20
REMARK    4  A    between atoms: N_23  and  C_24
REMARK    5  A    between atoms: C_24  and  C_25
REMARK    6  A    between atoms: C_30  and  N_31
REMARK    7  A    between atoms: N_36  and  C_37
REMARK                            x       y       z     vdW  Elec       q    Type
REMARK                         _______ _______ _______ _____ _____    ______ ____
ROOT
ATOM      1  C   UNL     1      24.389   1.215 -18.586  0.00  0.00    -0.009 A 
ATOM      2  C   UNL     1      24.776   2.383 -17.833  0.00  0.00    +0.037 A 
ATOM      3  C   UNL     1      25.444   0.563 -19.185  0.00  0.00    +0.010 A 
ATOM      4  C   UNL     1      26.171   2.643 -17.520  0.00  0.00    +0.072 A 
ATOM      5  C   UNL     1      26.641   0.530 -18.522  0.00  0.00    +0.010 A 
ATOM      6  N   UNL     1      26.971   3.786 -17.260  0.00  0.00    -0.242 NA
ATOM      7  C   UNL     1      26.867   1.451 -17.522  0.00  0.00    +0.000 A 
ATOM      8  C   UNL     1      28.331   3.578 -17.044  0.00  0.00    +0.126 A 
ATOM      9  C   UNL     1      27.977   1.277 -16.733  0.00  0.00    +0.012 A 
ATOM     10  C   UNL     1      28.846   2.324 -16.748  0.00  0.00    +0.033 A 
ENDROOT
BRANCH   1  12
ATOM     11  S   UNL     1      22.887  -1.023 -19.428  0.00  0.00    -0.088 S 
ATOM     12  C   UNL     1      23.043   0.537 -18.727  0.00  0.00    +0.023 A 
ATOM     13  C   UNL     1      21.162  -1.056 -19.297  0.00  0.00    +0.020 A 
ATOM     14  C   UNL     1      21.760   1.031 -18.382  0.00  0.00    -0.028 A 
ATOM     15  C   UNL     1      20.683   0.113 -18.714  0.00  0.00    -0.007 A 
ATOM     16  C   UNL     1      20.264  -2.070 -19.704  0.00  0.00    +0.015 A 
ATOM     17  C   UNL     1      21.366   2.352 -17.763  0.00  0.00    +0.045 C 
ATOM     18  C   UNL     1      19.272   0.258 -18.540  0.00  0.00    +0.009 A 
ATOM     19  C   UNL     1      18.881  -1.888 -19.533  0.00  0.00    +0.001 A 
ATOM     20  C   UNL     1      18.383  -0.734 -18.952  0.00  0.00    +0.001 A 
ENDBRANCH   1  12
BRANCH   8  21
ATOM     21  C   UNL     1      29.436   4.610 -17.149  0.00  0.00    +0.263 C 
ATOM     22  O   UNL     1      30.248   4.679 -16.207  0.00  0.00    -0.269 OA
ATOM     23  N   UNL     1      29.680   5.342 -18.293  0.00  0.00    -0.306 N 
ATOM     24  H   UNL     1      29.061   5.312 -19.059  0.00  0.00    +0.149 HD
BRANCH  23  25
ATOM     25  C   UNL     1      30.891   6.163 -18.330  0.00  0.00    +0.140 C 
BRANCH  25  26
ATOM     26  C   UNL     1      31.403   6.527 -19.701  0.00  0.00    -0.030 A 
ATOM     27  C   UNL     1      32.771   6.570 -19.972  0.00  0.00    +0.007 A 
ATOM     28  C   UNL     1      30.532   6.747 -20.771  0.00  0.00    +0.007 A 
ATOM     29  C   UNL     1      33.245   6.869 -21.265  0.00  0.00    +0.023 A 
ATOM     30  C   UNL     1      31.021   7.036 -22.064  0.00  0.00    +0.023 A 
ATOM     31  C   UNL     1      32.393   7.127 -22.353  0.00  0.00    +0.030 A 
BRANCH  31  32
ATOM     32  N   UNL     1      32.886   7.527 -23.597  0.00  0.00    -0.333 N 
ATOM     33  C   UNL     1      31.962   7.814 -24.720  0.00  0.00    +0.086 C 
ATOM     34  C   UNL     1      34.140   8.302 -23.713  0.00  0.00    +0.086 C 
ATOM     35  C   UNL     1      32.667   7.572 -26.081  0.00  0.00    -0.060 C 
ATOM     36  C   UNL     1      34.806   8.066 -25.095  0.00  0.00    -0.060 C 
ATOM     37  N   UNL     1      33.910   8.357 -26.240  0.00  0.00    +0.380 N 
ATOM     38  C   UNL     1      34.573   8.033 -27.505  0.00  0.00    -0.096 C 
ATOM     39  H   UNL     1      33.684   9.353 -26.257  0.00  0.00    -0.082 HD
ENDBRANCH  31  32
ENDBRANCH  25  26
ENDBRANCH  23  25
ENDBRANCH   8  21
TORSDOF 5
ENDMDL
MODEL 4
REMARK VINA RESULT:   -10.926      2.150      4.192
REMARK INTER + INTRA:         -15.077
REMARK INTER:                 -14.240
REMARK INTRA:                  -0.837
REMARK UNBOUND:                -0.958
REMARK  Name = CTX-1020912
REMARK  7 active torsions:
REMARK  status: ('A' for Active; 'I' for Inactive)
REMARK    1  A    between atoms: C_2  and  C_4
REMARK    2  A    between atoms: C_5  and  C_10
REMARK    3  A    between atoms: C_18  and  C_20
REMARK    4  A    between atoms: N_23  and  C_24
REMARK    5  A    between atoms: C_24  and  C_25
REMARK    6  A    between atoms: C_30  and  N_31
REMARK    7  A    between atoms: N_36  and  C_37
REMARK                            x       y       z     vdW  Elec       q    Type
REMARK                         _______ _______ _______ _____ _____    ______ ____
ROOT
ATOM      1  C   UNL     1      28.243   3.504 -22.905  0.00  0.00    -0.009 A 
ATOM      2  C   UNL     1      28.573   4.772 -23.507  0.00  0.00    +0.037 A 
ATOM      3  C   UNL     1      29.178   3.058 -21.997  0.00  0.00    +0.010 A 
ATOM      4  C   UNL     1      29.639   5.601 -22.971  0.00  0.00    +0.072 A 
ATOM      5  C   UNL     1      29.819   3.988 -21.223  0.00  0.00    +0.010 A 
ATOM      6  N   UNL     1      30.535   6.579 -23.476  0.00  0.00    -0.242 NA
ATOM      7  C   UNL     1      29.818   5.303 -21.635  0.00  0.00    +0.000 A 
ATOM      8  C   UNL     1      31.468   7.110 -22.587  0.00  0.00    +0.126 A 
ATOM      9  C   UNL     1      30.281   6.248 -20.753  0.00  0.00    +0.012 A 
ATOM     10  C   UNL     1      31.335   6.976 -21.214  0.00  0.00    +0.033 A 
ENDROOT
BRANCH   1  12
ATOM     11  S   UNL     1      26.168   2.067 -21.639  0.00  0.00    -0.088 S 
ATOM     12  C   UNL     1      26.997   2.652 -23.024  0.00  0.00    +0.023 A 
ATOM     13  C   UNL     1      24.989   1.188 -22.552  0.00  0.00    +0.020 A 
ATOM     14  C   UNL     1      26.358   2.176 -24.196  0.00  0.00    -0.028 A 
ATOM     15  C   UNL     1      25.206   1.333 -23.919  0.00  0.00    -0.007 A 
ATOM     16  C   UNL     1      23.920   0.391 -22.080  0.00  0.00    +0.015 A 
ATOM     17  C   UNL     1      26.713   2.391 -25.648  0.00  0.00    +0.045 C 
ATOM     18  C   UNL     1      24.326   0.661 -24.822  0.00  0.00    +0.009 A 
ATOM     19  C   UNL     1      23.084  -0.269 -22.996  0.00  0.00    +0.001 A 
ATOM     20  C   UNL     1      23.280  -0.136 -24.360  0.00  0.00    +0.001 A 
ENDBRANCH   1  12
BRANCH   8  21
ATOM     21  C   UNL     1      32.752   7.832 -22.943  0.00  0.00    +0.263 C 
ATOM     22  O   UNL     1      33.174   8.682 -22.137  0.00  0.00    -0.269 OA
ATOM     23  N   UNL     1      33.548   7.476 -24.013  0.00  0.00    -0.306 N 
ATOM     24  H   UNL     1      33.248   6.807 -24.671  0.00  0.00    +0.149 HD
BRANCH  23  25
ATOM     25  C   UNL     1      34.854   8.125 -24.134  0.00  0.00    +0.140 C 
BRANCH  25  26
ATOM     26  C   UNL     1      35.329   8.401 -25.539  0.00  0.00    -0.030 A 
ATOM     27  C   UNL     1      36.626   8.850 -25.786  0.00  0.00    +0.007 A 
ATOM     28  C   UNL     1      34.521   8.136 -26.648  0.00  0.00    +0.007 A 
ATOM     29  C   UNL     1      37.080   9.066 -27.103  0.00  0.00    +0.023 A 
ATOM     30  C   UNL     1      34.991   8.348 -27.961  0.00  0.00    +0.023 A 
ATOM     31  C   UNL     1      36.279   8.839 -28.236  0.00  0.00    +0.030 A 
BRANCH  31  32
ATOM     32  N   UNL     1      36.713   9.164 -29.523  0.00  0.00    -0.333 N 
ATOM     33  C   UNL     1      38.084   8.819 -29.968  0.00  0.00    +0.086 C 
ATOM     34  C   UNL     1      35.769   9.220 -30.661  0.00  0.00    +0.086 C 
ATOM     35  C   UNL     1      38.563   9.803 -31.068  0.00  0.00    -0.060 C 
ATOM     36  C   UNL     1      36.290  10.186 -31.759  0.00  0.00    -0.060 C 
ATOM     37  N   UNL     1      37.655   9.859 -32.235  0.00  0.00    +0.380 N 
ATOM     38  C   UNL     1      38.113  10.857 -33.204  0.00  0.00    -0.096 C 
ATOM     39  H   UNL     1      37.650   8.953 -32.705  0.00  0.00    -0.082 HD
ENDBRANCH  31  32
ENDBRANCH  25  26
ENDBRANCH  23  25
ENDBRANCH   8  21
TORSDOF 5
ENDMDL
MODEL 5
REMARK VINA RESULT:   -10.440      4.481     14.830
REMARK INTER + INTRA:         -14.449
REMARK INTER:                 -13.477
REMARK INTRA:                  -0.972
REMARK UNBOUND:                -0.958
REMARK  Name = CTX-1020912
REMARK  7 active torsions:
REMARK  status: ('A' for Active; 'I' for Inactive)
REMARK    1  A    between atoms: C_2  and  C_4
REMARK    2  A    between atoms: C_5  and  C_10
REMARK    3  A    between atoms: C_18  and  C_20
REMARK    4  A    between atoms: N_23  and  C_24
REMARK    5  A    between atoms: C_24  and  C_25
REMARK    6  A    between atoms: C_30  and  N_31
REMARK    7  A    between atoms: N_36  and  C_37
REMARK                            x       y       z     vdW  Elec       q    Type
REMARK                         _______ _______ _______ _____ _____    ______ ____
ROOT
ATOM      1  C   UNL     1      38.000   9.182 -27.800  0.00  0.00    -0.009 A 
ATOM      2  C   UNL     1      37.130   9.882 -26.887  0.00  0.00    +0.037 A 
ATOM      3  C   UNL     1      37.767   7.825 -27.862  0.00  0.00    +0.010 A 
ATOM      4  C   UNL     1      35.952   9.237 -26.332  0.00  0.00    +0.072 A 
ATOM      5  C   UNL     1      36.474   7.388 -27.745  0.00  0.00    +0.010 A 
ATOM      6  N   UNL     1      35.173   9.359 -25.152  0.00  0.00    -0.242 NA
ATOM      7  C   UNL     1      35.541   8.232 -27.183  0.00  0.00    +0.000 A 
ATOM      8  C   UNL     1      34.110   8.471 -24.994  0.00  0.00    +0.126 A 
ATOM      9  C   UNL     1      34.221   7.864 -27.260  0.00  0.00    +0.012 A 
ATOM     10  C   UNL     1      33.603   7.735 -26.054  0.00  0.00    +0.033 A 
ENDROOT
BRANCH   1  12
ATOM     11  S   UNL     1      40.591  10.213 -28.245  0.00  0.00    -0.088 S 
ATOM     12  C   UNL     1      39.036   9.707 -28.770  0.00  0.00    +0.023 A 
ATOM     13  C   UNL     1      41.111  10.703 -29.821  0.00  0.00    +0.020 A 
ATOM     14  C   UNL     1      38.920   9.908 -30.168  0.00  0.00    -0.028 A 
ATOM     15  C   UNL     1      40.114  10.483 -30.766  0.00  0.00    -0.007 A 
ATOM     16  C   UNL     1      42.347  11.272 -30.207  0.00  0.00    +0.015 A 
ATOM     17  C   UNL     1      37.753   9.643 -31.090  0.00  0.00    +0.045 C 
ATOM     18  C   UNL     1      40.372  10.843 -32.124  0.00  0.00    +0.009 A 
ATOM     19  C   UNL     1      42.562  11.630 -31.548  0.00  0.00    +0.001 A 
ATOM     20  C   UNL     1      41.585  11.416 -32.506  0.00  0.00    +0.001 A 
ENDBRANCH   1  12
BRANCH   8  21
ATOM     21  C   UNL     1      33.403   8.124 -23.700  0.00  0.00    +0.263 C 
ATOM     22  O   UNL     1      32.580   8.948 -23.257  0.00  0.00    -0.269 OA
ATOM     23  N   UNL     1      33.498   6.887 -23.094  0.00  0.00    -0.306 N 
ATOM     24  H   UNL     1      34.137   6.210 -23.417  0.00  0.00    +0.149 HD
BRANCH  23  25
ATOM     25  C   UNL     1      32.617   6.617 -21.957  0.00  0.00    +0.140 C 
BRANCH  25  26
ATOM     26  C   UNL     1      31.368   5.827 -22.260  0.00  0.00    -0.030 A 
ATOM     27  C   UNL     1      31.000   4.733 -21.478  0.00  0.00    +0.007 A 
ATOM     28  C   UNL     1      30.489   6.212 -23.275  0.00  0.00    +0.007 A 
ATOM     29  C   UNL     1      29.811   4.022 -21.738  0.00  0.00    +0.023 A 
ATOM     30  C   UNL     1      29.296   5.498 -23.518  0.00  0.00    +0.023 A 
ATOM     31  C   UNL     1      28.924   4.367 -22.773  0.00  0.00    +0.030 A 
BRANCH  31  32
ATOM     32  N   UNL     1      27.808   3.584 -23.079  0.00  0.00    -0.333 N 
ATOM     33  C   UNL     1      27.362   2.512 -22.159  0.00  0.00    +0.086 C 
ATOM     34  C   UNL     1      26.682   4.128 -23.870  0.00  0.00    +0.086 C 
ATOM     35  C   UNL     1      26.615   1.399 -22.942  0.00  0.00    -0.060 C 
ATOM     36  C   UNL     1      25.935   2.990 -24.615  0.00  0.00    -0.060 C 
ATOM     37  N   UNL     1      25.463   1.907 -23.718  0.00  0.00    +0.380 N 
ATOM     38  C   UNL     1      24.845   0.831 -24.496  0.00  0.00    -0.096 C 
ATOM     39  H   UNL     1      24.756   2.271 -23.079  0.00  0.00    -0.082 HD
ENDBRANCH  31  32
ENDBRANCH  25  26
ENDBRANCH  23  25
ENDBRANCH   8  21
TORSDOF 5
ENDMDL
