REMARK  Name = CTX-1020810
REMARK  7 active torsions:
REMARK  status: ('A' for Active; 'I' for Inactive)
REMARK    1  A    between atoms: C_3  and  C_7
REMARK    2  A    between atoms: C_6  and  C_11
REMARK    3  A    between atoms: C_21  and  C_23
REMARK    4  A    between atoms: N_26  and  C_27
REMARK    5  A    between atoms: C_27  and  C_28
REMARK    6  A    between atoms: C_33  and  N_34
REMARK    7  A    between atoms: N_39  and  C_40
REMARK                            x       y       z     vdW  Elec       q    Type
REMARK                         _______ _______ _______ _____ _____    ______ ____
ROOT
ATOM      1  C   UNL     1       4.939  -0.542  -0.030  0.00  0.00    +0.254 C 
ATOM      2  O   UNL     1       3.802  -0.171  -0.342  0.00  0.00    -0.269 OA
ATOM      3  N   UNL     1       5.953   0.490   0.101  0.00  0.00    -0.291 N 
ATOM      4  C   UNL     1       7.443   0.314   0.195  0.00  0.00    +0.163 C 
ATOM      5  C   UNL     1       5.423   1.817  -0.202  0.00  0.00    +0.113 C 
ATOM      6  C   UNL     1       8.360   1.566   0.140  0.00  0.00    +0.063 A 
ATOM      7  C   UNL     1       6.303   3.041  -0.032  0.00  0.00    +0.056 C 
ATOM      8  N   UNL     1       9.743   1.427   0.252  0.00  0.00    -0.245 NA
ATOM      9  C   UNL     1       7.774   2.825   0.027  0.00  0.00    -0.023 A 
ATOM     10  C   UNL     1      10.495   2.583   0.269  0.00  0.00    +0.126 A 
ATOM     11  C   UNL     1       8.582   3.966   0.029  0.00  0.00    +0.008 A 
ATOM     12  C   UNL     1       9.950   3.852   0.155  0.00  0.00    +0.033 A 
ENDROOT
BRANCH   1  15
ATOM     13  S   UNL     1       6.439  -2.548   1.175  0.00  0.00    -0.081 S 
ATOM     14  C   UNL     1       6.046  -4.198   1.003  0.00  0.00    +0.055 A 
ATOM     15  C   UNL     1       5.159  -1.994   0.194  0.00  0.00    +0.078 A 
ATOM     16  C   UNL     1       6.742  -5.294   1.538  0.00  0.00    +0.138 A 
ATOM     17  C   UNL     1       4.885  -4.369   0.257  0.00  0.00    -0.004 A 
ATOM     18  C   UNL     1       4.343  -3.086  -0.186  0.00  0.00    -0.023 A 
ATOM     19  F   UNL     1       7.856  -5.112   2.258  0.00  0.00    -0.204 F 
ATOM     20  C   UNL     1       6.283  -6.593   1.320  0.00  0.00    +0.039 A 
ATOM     21  C   UNL     1       4.418  -5.708   0.069  0.00  0.00    +0.009 A 
ATOM     22  C   UNL     1       3.047  -3.061  -0.961  0.00  0.00    +0.046 C 
ATOM     23  C   UNL     1       5.123  -6.800   0.593  0.00  0.00    +0.003 A 
ENDBRANCH   1  15
BRANCH  10  24
ATOM     24  C   UNL     1      12.016   2.593   0.412  0.00  0.00    +0.263 C 
ATOM     25  O   UNL     1      12.609   3.670   0.524  0.00  0.00    -0.269 OA
ATOM     26  N   UNL     1      12.706   1.405   0.387  0.00  0.00    -0.306 N 
ATOM     27  H   UNL     1      12.222   0.548   0.388  0.00  0.00    +0.149 HD
BRANCH  26  28
ATOM     28  C   UNL     1      14.161   1.430   0.358  0.00  0.00    +0.140 C 
BRANCH  28  29
ATOM     29  C   UNL     1      14.759   0.167   0.906  0.00  0.00    -0.030 A 
ATOM     30  C   UNL     1      15.637  -0.599   0.140  0.00  0.00    +0.007 A 
ATOM     31  C   UNL     1      14.461  -0.253   2.208  0.00  0.00    +0.007 A 
ATOM     32  C   UNL     1      16.140  -1.796   0.647  0.00  0.00    +0.023 A 
ATOM     33  C   UNL     1      14.957  -1.465   2.701  0.00  0.00    +0.023 A 
ATOM     34  C   UNL     1      15.785  -2.274   1.919  0.00  0.00    +0.030 A 
BRANCH  34  35
ATOM     35  N   UNL     1      16.301  -3.490   2.341  0.00  0.00    -0.333 N 
ATOM     36  C   UNL     1      16.396  -3.841   3.766  0.00  0.00    +0.086 C 
ATOM     37  C   UNL     1      15.997  -4.657   1.489  0.00  0.00    +0.086 C 
ATOM     38  C   UNL     1      17.473  -4.949   3.940  0.00  0.00    -0.060 C 
ATOM     39  C   UNL     1      17.111  -5.706   1.672  0.00  0.00    -0.060 C 
ATOM     40  N   UNL     1      17.233  -6.138   3.083  0.00  0.00    +0.380 N 
ATOM     41  C   UNL     1      18.316  -7.108   3.219  0.00  0.00    -0.096 C 
ATOM     42  H   UNL     1      16.369  -6.590   3.382  0.00  0.00    -0.082 HD
ENDBRANCH  34  35
ENDBRANCH  28  29
ENDBRANCH  26  28
ENDBRANCH  10  24
TORSDOF 5
