MODEL 1
REMARK VINA RESULT:   -12.401      0.000      0.000
REMARK INTER + INTRA:         -17.948
REMARK INTER:                 -16.750
REMARK INTRA:                  -1.198
REMARK UNBOUND:                -1.198
REMARK  Name = CTX-1020811
REMARK  8 active torsions:
REMARK  status: ('A' for Active; 'I' for Inactive)
REMARK    1  A    between atoms: C_2  and  C_4
REMARK    2  A    between atoms: N_3  and  C_5
REMARK    3  A    between atoms: C_5  and  C_8
REMARK    4  A    between atoms: C_19  and  N_22
REMARK    5  A    between atoms: C_21  and  C_24
REMARK    6  A    between atoms: C_28  and  C_33
REMARK    7  A    between atoms: C_33  and  C_37
REMARK    8  A    between atoms: N_34  and  C_38
REMARK                            x       y       z     vdW  Elec       q    Type
REMARK                         _______ _______ _______ _____ _____    ______ ____
ROOT
ATOM      1  C   UNL     1      28.714   5.068 -22.883  0.00  0.00    +0.126 A 
ATOM      2  N   UNL     1      28.451   3.887 -22.246  0.00  0.00    -0.245 NA
ATOM      3  C   UNL     1      28.084   5.477 -24.051  0.00  0.00    +0.033 A 
ATOM      4  C   UNL     1      27.519   3.067 -22.818  0.00  0.00    +0.063 A 
ATOM      5  C   UNL     1      27.121   4.648 -24.602  0.00  0.00    +0.008 A 
ATOM      6  C   UNL     1      26.832   3.423 -23.992  0.00  0.00    -0.023 A 
ATOM      7  C   UNL     1      27.266   1.705 -22.167  0.00  0.00    +0.163 C 
ATOM      8  C   UNL     1      25.731   2.564 -24.560  0.00  0.00    +0.056 C 
ATOM      9  N   UNL     1      26.014   1.088 -22.607  0.00  0.00    -0.289 N 
ATOM     10  C   UNL     1      25.753   1.133 -24.037  0.00  0.00    +0.113 C 
ATOM     11  C   UNL     1      25.279   0.278 -21.735  0.00  0.00    +0.283 C 
ATOM     12  O   UNL     1      25.818  -0.279 -20.778  0.00  0.00    -0.267 OA
ENDROOT
BRANCH  11  13
ATOM     13  C   UNL     1      23.815   0.351 -21.888  0.00  0.00    +0.194 A 
ATOM     14  O   UNL     1      23.278   1.575 -21.518  0.00  0.00    -0.450 OA
ATOM     15  C   UNL     1      22.834  -0.590 -21.572  0.00  0.00    +0.010 A 
ATOM     16  C   UNL     1      22.474   1.290 -20.465  0.00  0.00    +0.136 A 
ATOM     17  C   UNL     1      22.285  -0.077 -20.363  0.00  0.00    +0.024 A 
ATOM     18  C   UNL     1      21.947   2.228 -19.589  0.00  0.00    +0.047 A 
ATOM     19  C   UNL     1      21.558  -0.582 -19.276  0.00  0.00    +0.012 A 
ATOM     20  C   UNL     1      21.265   1.710 -18.491  0.00  0.00    +0.004 A 
ATOM     21  C   UNL     1      21.094   0.332 -18.319  0.00  0.00    +0.001 A 
BRANCH  15  22
ATOM     22  C   UNL     1      22.284  -1.734 -22.354  0.00  0.00    +0.036 C 
ATOM     23  C   UNL     1      22.971  -3.034 -21.891  0.00  0.00    +0.009 C 
ENDBRANCH  15  22
ENDBRANCH  11  13
BRANCH   1  25
ATOM     24  O   UNL     1      30.192   5.776 -21.166  0.00  0.00    -0.269 OA
ATOM     25  C   UNL     1      29.703   6.010 -22.265  0.00  0.00    +0.263 C 
ATOM     26  N   UNL     1      30.054   7.089 -23.038  0.00  0.00    -0.306 N 
ATOM     27  H   UNL     1      29.603   7.220 -23.903  0.00  0.00    +0.149 HD
BRANCH  26  28
ATOM     28  C   UNL     1      31.064   8.038 -22.624  0.00  0.00    +0.140 C 
BRANCH  28  29
ATOM     29  C   UNL     1      32.175   8.105 -23.643  0.00  0.00    -0.030 A 
ATOM     30  C   UNL     1      31.927   7.752 -24.963  0.00  0.00    +0.007 A 
ATOM     31  C   UNL     1      33.459   8.501 -23.277  0.00  0.00    +0.007 A 
ATOM     32  C   UNL     1      32.945   7.804 -25.914  0.00  0.00    +0.023 A 
ATOM     33  C   UNL     1      34.481   8.562 -24.236  0.00  0.00    +0.023 A 
ATOM     34  C   UNL     1      34.248   8.221 -25.574  0.00  0.00    +0.030 A 
BRANCH  34  35
ATOM     35  N   UNL     1      35.206   8.329 -26.565  0.00  0.00    -0.333 N 
ATOM     36  C   UNL     1      34.852   8.769 -27.922  0.00  0.00    +0.086 C 
ATOM     37  C   UNL     1      36.572   8.728 -26.175  0.00  0.00    +0.086 C 
ATOM     38  C   UNL     1      35.875   8.174 -28.919  0.00  0.00    -0.060 C 
ATOM     39  C   UNL     1      37.582   8.153 -27.198  0.00  0.00    -0.060 C 
ATOM     40  N   UNL     1      37.276   8.536 -28.599  0.00  0.00    +0.380 N 
ATOM     41  C   UNL     1      38.195   7.867 -29.519  0.00  0.00    -0.096 C 
ATOM     42  H   UNL     1      37.394   9.544 -28.705  0.00  0.00    -0.082 HD
ENDBRANCH  34  35
ENDBRANCH  28  29
ENDBRANCH  26  28
ENDBRANCH   1  25
TORSDOF 6
ENDMDL
MODEL 2
REMARK VINA RESULT:   -11.049      3.697      6.679
REMARK INTER + INTRA:         -16.122
REMARK INTER:                 -14.988
REMARK INTRA:                  -1.133
REMARK UNBOUND:                -1.198
REMARK  Name = CTX-1020811
REMARK  8 active torsions:
REMARK  status: ('A' for Active; 'I' for Inactive)
REMARK    1  A    between atoms: C_2  and  C_4
REMARK    2  A    between atoms: N_3  and  C_5
REMARK    3  A    between atoms: C_5  and  C_8
REMARK    4  A    between atoms: C_19  and  N_22
REMARK    5  A    between atoms: C_21  and  C_24
REMARK    6  A    between atoms: C_28  and  C_33
REMARK    7  A    between atoms: C_33  and  C_37
REMARK    8  A    between atoms: N_34  and  C_38
REMARK                            x       y       z     vdW  Elec       q    Type
REMARK                         _______ _______ _______ _____ _____    ______ ____
ROOT
ATOM      1  C   UNL     1      25.928   3.531 -16.165  0.00  0.00    +0.126 A 
ATOM      2  N   UNL     1      25.306   3.210 -17.339  0.00  0.00    -0.245 NA
ATOM      3  C   UNL     1      25.432   3.207 -14.909  0.00  0.00    +0.033 A 
ATOM      4  C   UNL     1      24.116   2.543 -17.249  0.00  0.00    +0.063 A 
ATOM      5  C   UNL     1      24.240   2.506 -14.835  0.00  0.00    +0.008 A 
ATOM      6  C   UNL     1      23.561   2.171 -16.012  0.00  0.00    -0.023 A 
ATOM      7  C   UNL     1      23.362   2.244 -18.547  0.00  0.00    +0.163 C 
ATOM      8  C   UNL     1      22.304   1.344 -15.922  0.00  0.00    +0.056 C 
ATOM      9  N   UNL     1      22.333   1.217 -18.383  0.00  0.00    -0.289 N 
ATOM     10  C   UNL     1      21.486   1.349 -17.208  0.00  0.00    +0.113 C 
ATOM     11  C   UNL     1      22.026   0.347 -19.434  0.00  0.00    +0.283 C 
ATOM     12  O   UNL     1      22.264   0.653 -20.604  0.00  0.00    -0.267 OA
ENDROOT
BRANCH  11  13
ATOM     13  C   UNL     1      21.653  -1.022 -19.034  0.00  0.00    +0.194 A 
ATOM     14  O   UNL     1      22.654  -1.956 -19.249  0.00  0.00    -0.450 OA
ATOM     15  C   UNL     1      20.457  -1.716 -19.225  0.00  0.00    +0.010 A 
ATOM     16  C   UNL     1      22.134  -2.809 -20.165  0.00  0.00    +0.136 A 
ATOM     17  C   UNL     1      20.773  -2.595 -20.298  0.00  0.00    +0.024 A 
ATOM     18  C   UNL     1      22.863  -3.737 -20.894  0.00  0.00    +0.047 A 
ATOM     19  C   UNL     1      20.065  -3.316 -21.270  0.00  0.00    +0.012 A 
ATOM     20  C   UNL     1      22.157  -4.414 -21.885  0.00  0.00    +0.004 A 
ATOM     21  C   UNL     1      20.791  -4.192 -22.091  0.00  0.00    +0.001 A 
BRANCH  15  22
ATOM     22  C   UNL     1      19.204  -1.753 -18.416  0.00  0.00    +0.036 C 
ATOM     23  C   UNL     1      18.160  -0.825 -19.068  0.00  0.00    +0.009 C 
ENDBRANCH  15  22
ENDBRANCH  11  13
BRANCH   1  25
ATOM     24  O   UNL     1      27.344   5.428 -15.988  0.00  0.00    -0.269 OA
ATOM     25  C   UNL     1      27.254   4.229 -16.225  0.00  0.00    +0.263 C 
ATOM     26  N   UNL     1      28.334   3.425 -16.494  0.00  0.00    -0.306 N 
ATOM     27  H   UNL     1      28.180   2.474 -16.692  0.00  0.00    +0.149 HD
BRANCH  26  28
ATOM     28  C   UNL     1      29.690   3.930 -16.493  0.00  0.00    +0.140 C 
BRANCH  28  29
ATOM     29  C   UNL     1      30.003   4.604 -17.806  0.00  0.00    -0.030 A 
ATOM     30  C   UNL     1      29.818   3.918 -18.999  0.00  0.00    +0.007 A 
ATOM     31  C   UNL     1      30.495   5.906 -17.842  0.00  0.00    +0.007 A 
ATOM     32  C   UNL     1      30.108   4.527 -20.220  0.00  0.00    +0.023 A 
ATOM     33  C   UNL     1      30.779   6.522 -19.070  0.00  0.00    +0.023 A 
ATOM     34  C   UNL     1      30.588   5.850 -20.284  0.00  0.00    +0.030 A 
BRANCH  34  35
ATOM     35  N   UNL     1      30.790   6.438 -21.520  0.00  0.00    -0.333 N 
ATOM     36  C   UNL     1      29.814   6.281 -22.607  0.00  0.00    +0.086 C 
ATOM     37  C   UNL     1      31.494   7.734 -21.569  0.00  0.00    +0.086 C 
ATOM     38  C   UNL     1      30.553   6.423 -23.960  0.00  0.00    -0.060 C 
ATOM     39  C   UNL     1      32.201   7.878 -22.939  0.00  0.00    -0.060 C 
ATOM     40  N   UNL     1      31.281   7.708 -24.092  0.00  0.00    +0.380 N 
ATOM     41  C   UNL     1      32.032   7.739 -25.346  0.00  0.00    -0.096 C 
ATOM     42  H   UNL     1      30.609   8.475 -24.101  0.00  0.00    -0.082 HD
ENDBRANCH  34  35
ENDBRANCH  28  29
ENDBRANCH  26  28
ENDBRANCH   1  25
TORSDOF 6
ENDMDL
MODEL 3
REMARK VINA RESULT:   -10.956      3.841      6.281
REMARK INTER + INTRA:         -15.997
REMARK INTER:                 -15.843
REMARK INTRA:                  -0.153
REMARK UNBOUND:                -1.198
REMARK  Name = CTX-1020811
REMARK  8 active torsions:
REMARK  status: ('A' for Active; 'I' for Inactive)
REMARK    1  A    between atoms: C_2  and  C_4
REMARK    2  A    between atoms: N_3  and  C_5
REMARK    3  A    between atoms: C_5  and  C_8
REMARK    4  A    between atoms: C_19  and  N_22
REMARK    5  A    between atoms: C_21  and  C_24
REMARK    6  A    between atoms: C_28  and  C_33
REMARK    7  A    between atoms: C_33  and  C_37
REMARK    8  A    between atoms: N_34  and  C_38
REMARK                            x       y       z     vdW  Elec       q    Type
REMARK                         _______ _______ _______ _____ _____    ______ ____
ROOT
ATOM      1  C   UNL     1      25.739   1.288 -18.103  0.00  0.00    +0.126 A 
ATOM      2  N   UNL     1      25.564   0.360 -19.091  0.00  0.00    -0.245 NA
ATOM      3  C   UNL     1      24.703   2.002 -17.515  0.00  0.00    +0.033 A 
ATOM      4  C   UNL     1      24.285   0.147 -19.523  0.00  0.00    +0.063 A 
ATOM      5  C   UNL     1      23.409   1.754 -17.943  0.00  0.00    +0.008 A 
ATOM      6  C   UNL     1      23.186   0.823 -18.964  0.00  0.00    -0.023 A 
ATOM      7  C   UNL     1      24.073  -0.828 -20.683  0.00  0.00    +0.163 C 
ATOM      8  C   UNL     1      21.769   0.508 -19.370  0.00  0.00    +0.056 C 
ATOM      9  N   UNL     1      22.684  -1.273 -20.806  0.00  0.00    -0.289 N 
ATOM     10  C   UNL     1      21.673  -0.233 -20.698  0.00  0.00    +0.113 C 
ATOM     11  C   UNL     1      22.391  -2.559 -21.271  0.00  0.00    +0.283 C 
ATOM     12  O   UNL     1      23.193  -3.183 -21.968  0.00  0.00    -0.267 OA
ENDROOT
BRANCH  11  13
ATOM     13  C   UNL     1      21.204  -3.193 -20.669  0.00  0.00    +0.194 A 
ATOM     14  O   UNL     1      20.025  -2.503 -20.905  0.00  0.00    -0.450 OA
ATOM     15  C   UNL     1      21.042  -3.775 -19.410  0.00  0.00    +0.010 A 
ATOM     16  C   UNL     1      19.604  -2.117 -19.676  0.00  0.00    +0.136 A 
ATOM     17  C   UNL     1      20.320  -2.779 -18.694  0.00  0.00    +0.024 A 
ATOM     18  C   UNL     1      18.624  -1.166 -19.432  0.00  0.00    +0.047 A 
ATOM     19  C   UNL     1      20.098  -2.446 -17.351  0.00  0.00    +0.012 A 
ATOM     20  C   UNL     1      18.445  -0.814 -18.097  0.00  0.00    +0.004 A 
ATOM     21  C   UNL     1      19.183  -1.419 -17.075  0.00  0.00    +0.001 A 
BRANCH  15  22
ATOM     22  C   UNL     1      21.318  -5.159 -18.927  0.00  0.00    +0.036 C 
ATOM     23  C   UNL     1      21.572  -6.073 -20.142  0.00  0.00    +0.009 C 
ENDBRANCH  15  22
ENDBRANCH  11  13
BRANCH   1  25
ATOM     24  O   UNL     1      27.901   0.588 -17.416  0.00  0.00    -0.269 OA
ATOM     25  C   UNL     1      27.124   1.522 -17.577  0.00  0.00    +0.263 C 
ATOM     26  N   UNL     1      27.460   2.836 -17.359  0.00  0.00    -0.306 N 
ATOM     27  H   UNL     1      26.775   3.529 -17.493  0.00  0.00    +0.149 HD
BRANCH  26  28
ATOM     28  C   UNL     1      28.787   3.233 -16.943  0.00  0.00    +0.140 C 
BRANCH  28  29
ATOM     29  C   UNL     1      29.446   4.073 -18.009  0.00  0.00    -0.030 A 
ATOM     30  C   UNL     1      29.935   5.334 -17.694  0.00  0.00    +0.007 A 
ATOM     31  C   UNL     1      29.559   3.609 -19.317  0.00  0.00    +0.007 A 
ATOM     32  C   UNL     1      30.543   6.123 -18.670  0.00  0.00    +0.023 A 
ATOM     33  C   UNL     1      30.178   4.399 -20.297  0.00  0.00    +0.023 A 
ATOM     34  C   UNL     1      30.687   5.669 -19.997  0.00  0.00    +0.030 A 
BRANCH  34  35
ATOM     35  N   UNL     1      31.363   6.454 -20.912  0.00  0.00    -0.333 N 
ATOM     36  C   UNL     1      32.792   6.245 -21.188  0.00  0.00    +0.086 C 
ATOM     37  C   UNL     1      30.623   6.948 -22.089  0.00  0.00    +0.086 C 
ATOM     38  C   UNL     1      33.405   7.583 -21.667  0.00  0.00    -0.060 C 
ATOM     39  C   UNL     1      31.266   8.269 -22.578  0.00  0.00    -0.060 C 
ATOM     40  N   UNL     1      32.719   8.144 -22.856  0.00  0.00    +0.380 N 
ATOM     41  C   UNL     1      33.282   9.448 -23.198  0.00  0.00    -0.096 C 
ATOM     42  H   UNL     1      32.856   7.516 -23.648  0.00  0.00    -0.082 HD
ENDBRANCH  34  35
ENDBRANCH  28  29
ENDBRANCH  26  28
ENDBRANCH   1  25
TORSDOF 6
ENDMDL
MODEL 4
REMARK VINA RESULT:   -10.610      4.007      6.697
REMARK INTER + INTRA:         -15.529
REMARK INTER:                 -14.511
REMARK INTRA:                  -1.017
REMARK UNBOUND:                -1.198
REMARK  Name = CTX-1020811
REMARK  8 active torsions:
REMARK  status: ('A' for Active; 'I' for Inactive)
REMARK    1  A    between atoms: C_2  and  C_4
REMARK    2  A    between atoms: N_3  and  C_5
REMARK    3  A    between atoms: C_5  and  C_8
REMARK    4  A    between atoms: C_19  and  N_22
REMARK    5  A    between atoms: C_21  and  C_24
REMARK    6  A    between atoms: C_28  and  C_33
REMARK    7  A    between atoms: C_33  and  C_37
REMARK    8  A    between atoms: N_34  and  C_38
REMARK                            x       y       z     vdW  Elec       q    Type
REMARK                         _______ _______ _______ _____ _____    ______ ____
ROOT
ATOM      1  C   UNL     1      24.234   0.397 -23.391  0.00  0.00    +0.126 A 
ATOM      2  N   UNL     1      24.215   0.771 -22.077  0.00  0.00    -0.245 NA
ATOM      3  C   UNL     1      23.520  -0.679 -23.903  0.00  0.00    +0.033 A 
ATOM      4  C   UNL     1      23.453   0.018 -21.228  0.00  0.00    +0.063 A 
ATOM      5  C   UNL     1      22.730  -1.415 -23.035  0.00  0.00    +0.008 A 
ATOM      6  C   UNL     1      22.695  -1.077 -21.678  0.00  0.00    -0.023 A 
ATOM      7  C   UNL     1      23.481   0.369 -19.738  0.00  0.00    +0.163 C 
ATOM      8  C   UNL     1      21.775  -1.838 -20.757  0.00  0.00    +0.056 C 
ATOM      9  N   UNL     1      22.368  -0.222 -18.994  0.00  0.00    -0.289 N 
ATOM     10  C   UNL     1      22.083  -1.619 -19.281  0.00  0.00    +0.113 C 
ATOM     11  C   UNL     1      21.818   0.446 -17.895  0.00  0.00    +0.283 C 
ATOM     12  O   UNL     1      22.467   1.283 -17.267  0.00  0.00    -0.267 OA
ENDROOT
BRANCH  11  13
ATOM     13  C   UNL     1      20.365   0.271 -17.713  0.00  0.00    +0.194 A 
ATOM     14  O   UNL     1      19.677   1.465 -17.557  0.00  0.00    -0.450 OA
ATOM     15  C   UNL     1      19.665  -0.658 -16.941  0.00  0.00    +0.010 A 
ATOM     16  C   UNL     1      19.157   1.399 -16.307  0.00  0.00    +0.136 A 
ATOM     17  C   UNL     1      19.262   0.110 -15.813  0.00  0.00    +0.024 A 
ATOM     18  C   UNL     1      18.630   2.473 -15.606  0.00  0.00    +0.047 A 
ATOM     19  C   UNL     1      18.866  -0.144 -14.493  0.00  0.00    +0.012 A 
ATOM     20  C   UNL     1      18.281   2.216 -14.283  0.00  0.00    +0.004 A 
ATOM     21  C   UNL     1      18.419   0.941 -13.724  0.00  0.00    +0.001 A 
BRANCH  15  22
ATOM     22  C   UNL     1      19.214  -2.046 -17.248  0.00  0.00    +0.036 C 
ATOM     23  C   UNL     1      17.694  -2.033 -17.505  0.00  0.00    +0.009 C 
ENDBRANCH  15  22
ENDBRANCH  11  13
BRANCH   1  25
ATOM     24  O   UNL     1      25.307   0.789 -25.472  0.00  0.00    -0.269 OA
ATOM     25  C   UNL     1      25.028   1.221 -24.360  0.00  0.00    +0.263 C 
ATOM     26  N   UNL     1      25.351   2.486 -23.933  0.00  0.00    -0.306 N 
ATOM     27  H   UNL     1      25.109   2.755 -23.018  0.00  0.00    +0.149 HD
BRANCH  26  28
ATOM     28  C   UNL     1      26.032   3.436 -24.785  0.00  0.00    +0.140 C 
BRANCH  28  29
ATOM     29  C   UNL     1      27.167   4.094 -24.040  0.00  0.00    -0.030 A 
ATOM     30  C   UNL     1      27.920   3.359 -23.134  0.00  0.00    +0.007 A 
ATOM     31  C   UNL     1      27.465   5.441 -24.235  0.00  0.00    +0.007 A 
ATOM     32  C   UNL     1      28.970   3.955 -22.435  0.00  0.00    +0.023 A 
ATOM     33  C   UNL     1      28.526   6.039 -23.538  0.00  0.00    +0.023 A 
ATOM     34  C   UNL     1      29.304   5.311 -22.628  0.00  0.00    +0.030 A 
BRANCH  34  35
ATOM     35  N   UNL     1      30.399   5.839 -21.969  0.00  0.00    -0.333 N 
ATOM     36  C   UNL     1      31.467   6.534 -22.703  0.00  0.00    +0.086 C 
ATOM     37  C   UNL     1      30.204   6.372 -20.608  0.00  0.00    +0.086 C 
ATOM     38  C   UNL     1      32.783   6.407 -21.899  0.00  0.00    -0.060 C 
ATOM     39  C   UNL     1      31.536   6.270 -19.825  0.00  0.00    -0.060 C 
ATOM     40  N   UNL     1      32.672   6.930 -20.516  0.00  0.00    +0.380 N 
ATOM     41  C   UNL     1      33.915   6.695 -19.783  0.00  0.00    -0.096 C 
ATOM     42  H   UNL     1      32.505   7.936 -20.551  0.00  0.00    -0.082 HD
ENDBRANCH  34  35
ENDBRANCH  28  29
ENDBRANCH  26  28
ENDBRANCH   1  25
TORSDOF 6
ENDMDL
MODEL 5
REMARK VINA RESULT:   -10.274      4.034      7.022
REMARK INTER + INTRA:         -15.075
REMARK INTER:                 -14.781
REMARK INTRA:                  -0.295
REMARK UNBOUND:                -1.198
REMARK  Name = CTX-1020811
REMARK  8 active torsions:
REMARK  status: ('A' for Active; 'I' for Inactive)
REMARK    1  A    between atoms: C_2  and  C_4
REMARK    2  A    between atoms: N_3  and  C_5
REMARK    3  A    between atoms: C_5  and  C_8
REMARK    4  A    between atoms: C_19  and  N_22
REMARK    5  A    between atoms: C_21  and  C_24
REMARK    6  A    between atoms: C_28  and  C_33
REMARK    7  A    between atoms: C_33  and  C_37
REMARK    8  A    between atoms: N_34  and  C_38
REMARK                            x       y       z     vdW  Elec       q    Type
REMARK                         _______ _______ _______ _____ _____    ______ ____
ROOT
ATOM      1  C   UNL     1      25.751   2.471 -15.950  0.00  0.00    +0.126 A 
ATOM      2  N   UNL     1      25.113   2.088 -17.097  0.00  0.00    -0.245 NA
ATOM      3  C   UNL     1      25.095   2.914 -14.809  0.00  0.00    +0.033 A 
ATOM      4  C   UNL     1      23.749   2.168 -17.105  0.00  0.00    +0.063 A 
ATOM      5  C   UNL     1      23.711   2.962 -14.823  0.00  0.00    +0.008 A 
ATOM      6  C   UNL     1      23.019   2.595 -15.982  0.00  0.00    -0.023 A 
ATOM      7  C   UNL     1      23.019   1.822 -18.405  0.00  0.00    +0.163 C 
ATOM      8  C   UNL     1      21.512   2.580 -15.961  0.00  0.00    +0.056 C 
ATOM      9  N   UNL     1      21.592   1.565 -18.205  0.00  0.00    -0.289 N 
ATOM     10  C   UNL     1      20.890   2.510 -17.351  0.00  0.00    +0.113 C 
ATOM     11  C   UNL     1      20.920   0.638 -19.008  0.00  0.00    +0.283 C 
ATOM     12  O   UNL     1      21.343   0.337 -20.125  0.00  0.00    -0.267 OA
ENDROOT
BRANCH  11  13
ATOM     13  C   UNL     1      19.850  -0.123 -18.336  0.00  0.00    +0.194 A 
ATOM     14  O   UNL     1      18.742   0.645 -18.011  0.00  0.00    -0.450 OA
ATOM     15  C   UNL     1      19.934  -1.088 -17.331  0.00  0.00    +0.010 A 
ATOM     16  C   UNL     1      18.688   0.610 -16.657  0.00  0.00    +0.136 A 
ATOM     17  C   UNL     1      19.538  -0.367 -16.169  0.00  0.00    +0.024 A 
ATOM     18  C   UNL     1      17.922   1.456 -15.868  0.00  0.00    +0.047 A 
ATOM     19  C   UNL     1      19.697  -0.497 -14.783  0.00  0.00    +0.012 A 
ATOM     20  C   UNL     1      18.122   1.345 -14.495  0.00  0.00    +0.004 A 
ATOM     21  C   UNL     1      19.011   0.407 -13.959  0.00  0.00    +0.001 A 
BRANCH  15  22
ATOM     22  C   UNL     1      20.150  -2.562 -17.402  0.00  0.00    +0.036 C 
ATOM     23  C   UNL     1      20.058  -3.010 -18.874  0.00  0.00    +0.009 C 
ENDBRANCH  15  22
ENDBRANCH  11  13
BRANCH   1  25
ATOM     24  O   UNL     1      27.786   1.304 -15.592  0.00  0.00    -0.269 OA
ATOM     25  C   UNL     1      27.245   2.362 -15.890  0.00  0.00    +0.263 C 
ATOM     26  N   UNL     1      27.936   3.493 -16.250  0.00  0.00    -0.306 N 
ATOM     27  H   UNL     1      27.430   4.312 -16.459  0.00  0.00    +0.149 HD
BRANCH  26  28
ATOM     28  C   UNL     1      29.379   3.521 -16.334  0.00  0.00    +0.140 C 
BRANCH  28  29
ATOM     29  C   UNL     1      29.822   4.235 -17.587  0.00  0.00    -0.030 A 
ATOM     30  C   UNL     1      30.357   5.514 -17.504  0.00  0.00    +0.007 A 
ATOM     31  C   UNL     1      29.688   3.637 -18.837  0.00  0.00    +0.007 A 
ATOM     32  C   UNL     1      30.766   6.188 -18.654  0.00  0.00    +0.023 A 
ATOM     33  C   UNL     1      30.107   4.312 -19.994  0.00  0.00    +0.023 A 
ATOM     34  C   UNL     1      30.659   5.597 -19.929  0.00  0.00    +0.030 A 
BRANCH  34  35
ATOM     35  N   UNL     1      31.147   6.273 -21.032  0.00  0.00    -0.333 N 
ATOM     36  C   UNL     1      30.240   6.922 -21.990  0.00  0.00    +0.086 C 
ATOM     37  C   UNL     1      32.439   6.973 -20.907  0.00  0.00    +0.086 C 
ATOM     38  C   UNL     1      30.937   6.983 -23.370  0.00  0.00    -0.060 C 
ATOM     39  C   UNL     1      33.110   7.056 -22.299  0.00  0.00    -0.060 C 
ATOM     40  N   UNL     1      32.244   7.681 -23.330  0.00  0.00    +0.380 N 
ATOM     41  C   UNL     1      32.892   7.620 -24.639  0.00  0.00    -0.096 C 
ATOM     42  H   UNL     1      32.093   8.661 -23.092  0.00  0.00    -0.082 HD
ENDBRANCH  34  35
ENDBRANCH  28  29
ENDBRANCH  26  28
ENDBRANCH   1  25
TORSDOF 6
ENDMDL
