REMARK  Name = CTX-1020799
REMARK  6 active torsions:
REMARK  status: ('A' for Active; 'I' for Inactive)
REMARK    1  A    between atoms: C_3  and  C_6
REMARK    2  A    between atoms: C_21  and  C_22
REMARK    3  A    between atoms: N_24  and  C_25
REMARK    4  A    between atoms: C_25  and  C_26
REMARK    5  A    between atoms: C_31  and  N_32
REMARK    6  A    between atoms: N_38  and  C_39
REMARK                            x       y       z     vdW  Elec       q    Type
REMARK                         _______ _______ _______ _____ _____    ______ ____
ROOT
ATOM      1  C   UNL     1       9.121 -10.351  -0.142  0.00  0.00    +0.255 C 
ATOM      2  O   UNL     1       9.015 -10.832  -1.273  0.00  0.00    -0.269 OA
ATOM      3  N   UNL     1       7.941  -9.672   0.428  0.00  0.00    -0.292 N 
ATOM      4  C   UNL     1       6.959  -8.720  -0.402  0.00  0.00    +0.144 C 
ATOM      5  C   UNL     1       7.298 -10.707   1.190  0.00  0.00    +0.113 C 
ATOM      6  C   UNL     1       5.430  -8.803   0.002  0.00  0.00    -0.019 A 
ATOM      7  C   UNL     1       5.972 -10.419   1.769  0.00  0.00    +0.062 C 
ATOM      8  C   UNL     1       5.110  -9.446   1.157  0.00  0.00    -0.003 A 
ATOM      9  C   UNL     1       4.103  -8.500  -0.624  0.00  0.00    +0.026 A 
ATOM     10  S   UNL     1       3.533  -9.254   1.715  0.00  0.00    -0.088 S 
ATOM     11  C   UNL     1       3.058  -9.161   0.062  0.00  0.00    +0.074 A 
ENDROOT
BRANCH   1  14
ATOM     12 CL   UNL     1      10.820 -13.338   0.248  0.00  0.00    -0.082 Cl
ATOM     13  C   UNL     1      11.198 -11.767   0.854  0.00  0.00    +0.068 A 
ATOM     14  C   UNL     1      10.353 -10.639   0.727  0.00  0.00    +0.093 A 
ATOM     15  C   UNL     1      12.510 -11.532   1.550  0.00  0.00    +0.008 A 
ATOM     16  S   UNL     1      11.020  -9.376   1.679  0.00  0.00    -0.082 S 
ATOM     17  C   UNL     1      12.496 -10.221   2.013  0.00  0.00    +0.021 A 
ATOM     18  C   UNL     1      13.758 -12.341   1.808  0.00  0.00    +0.010 A 
ATOM     19  C   UNL     1      13.619  -9.715   2.673  0.00  0.00    +0.016 A 
ATOM     20  C   UNL     1      14.923 -11.844   2.437  0.00  0.00    +0.001 A 
ATOM     21  C   UNL     1      14.761 -10.514   2.837  0.00  0.00    +0.001 A 
ENDBRANCH   1  14
BRANCH  11  22
ATOM     22  C   UNL     1       1.740  -9.746  -0.233  0.00  0.00    +0.251 C 
ATOM     23  O   UNL     1       0.754  -9.100  -0.566  0.00  0.00    -0.270 OA
ATOM     24  N   UNL     1       1.720 -11.103   0.021  0.00  0.00    -0.307 N 
ATOM     25  H   UNL     1       2.602 -11.523   0.146  0.00  0.00    +0.149 HD
BRANCH  24  26
ATOM     26  C   UNL     1       0.574 -12.007   0.131  0.00  0.00    +0.139 C 
BRANCH  26  27
ATOM     27  C   UNL     1       0.132 -12.487  -1.218  0.00  0.00    -0.030 A 
ATOM     28  C   UNL     1       0.571 -13.694  -1.777  0.00  0.00    +0.007 A 
ATOM     29  C   UNL     1      -0.711 -11.667  -1.973  0.00  0.00    +0.007 A 
ATOM     30  C   UNL     1       0.244 -14.019  -3.096  0.00  0.00    +0.023 A 
ATOM     31  C   UNL     1      -1.058 -12.016  -3.278  0.00  0.00    +0.023 A 
ATOM     32  C   UNL     1      -0.541 -13.167  -3.879  0.00  0.00    +0.030 A 
BRANCH  32  33
ATOM     33  N   UNL     1      -0.833 -13.477  -5.221  0.00  0.00    -0.329 N 
ATOM     34  C   UNL     1      -0.120 -14.371  -6.093  0.00  0.00    +0.110 C 
ATOM     35  C   UNL     1      -1.259 -12.604  -6.294  0.00  0.00    +0.110 C 
ATOM     36  C   UNL     1      -0.322 -13.359  -7.176  0.00  0.00    -0.027 C 
ATOM     37  C   UNL     1       0.884 -12.665  -7.751  0.00  0.00    -0.071 C 
ATOM     38  C   UNL     1      -0.676 -13.818  -8.558  0.00  0.00    -0.071 C 
ATOM     39  N   UNL     1       0.721 -13.495  -8.983  0.00  0.00    +0.379 N 
ATOM     40  C   UNL     1       1.579 -14.682  -8.913  0.00  0.00    -0.096 C 
ATOM     41  H   UNL     1       0.913 -13.117  -9.911  0.00  0.00    -0.082 HD
ENDBRANCH  32  33
ENDBRANCH  26  27
ENDBRANCH  24  26
ENDBRANCH  11  22
TORSDOF 5
