REMARK  Name = CTX-1020800
REMARK  7 active torsions:
REMARK  status: ('A' for Active; 'I' for Inactive)
REMARK    1  A    between atoms: C_2  and  C_4
REMARK    2  A    between atoms: C_8  and  C_13
REMARK    3  A    between atoms: C_19  and  C_22
REMARK    4  A    between atoms: N_24  and  C_25
REMARK    5  A    between atoms: C_25  and  C_26
REMARK    6  A    between atoms: C_31  and  N_32
REMARK    7  A    between atoms: N_37  and  C_38
REMARK                            x       y       z     vdW  Elec       q    Type
REMARK                         _______ _______ _______ _____ _____    ______ ____
ROOT
ATOM      1  O   UNL     1       2.532  -0.065  -1.854  0.00  0.00    -0.267 OA
ATOM      2  C   UNL     1       2.114   0.018  -0.676  0.00  0.00    +0.283 C 
ATOM      3  N   UNL     1       2.957   0.922   0.209  0.00  0.00    -0.290 N 
ATOM      4  C   UNL     1       4.142   1.565  -0.457  0.00  0.00    +0.145 C 
ATOM      5  C   UNL     1       2.603   1.376   1.602  0.00  0.00    +0.114 C 
ATOM      6  C   UNL     1       4.764   2.717   0.281  0.00  0.00    -0.009 A 
ATOM      7  C   UNL     1       3.350   2.589   2.345  0.00  0.00    +0.072 C 
ATOM      8  C   UNL     1       4.430   3.183   1.527  0.00  0.00    +0.023 A 
ATOM      9  C   UNL     1       5.811   3.551  -0.180  0.00  0.00    +0.037 A 
ATOM     10  N   UNL     1       5.244   4.265   1.837  0.00  0.00    -0.354 N 
ATOM     11  C   UNL     1       6.114   4.504   0.770  0.00  0.00    +0.102 A 
ATOM     12  H   UNL     1       5.213   4.781   2.675  0.00  0.00    +0.166 HD
ENDROOT
BRANCH   2  13
ATOM     13  C   UNL     1       0.769  -0.818  -0.194  0.00  0.00    +0.194 A 
ATOM     14  O   UNL     1       0.888  -1.384   1.095  0.00  0.00    -0.450 OA
ATOM     15  C   UNL     1       0.095  -2.132  -0.531  0.00  0.00    +0.008 A 
ATOM     16  C   UNL     1       0.077  -2.785   1.066  0.00  0.00    +0.136 A 
ATOM     17  C   UNL     1      -1.549  -2.529   0.439  0.00  0.00    +0.024 A 
ATOM     18  C   UNL     1       1.779  -3.037  -0.529  0.00  0.00    +0.048 C 
ATOM     19  C   UNL     1       0.124  -3.414   2.218  0.00  0.00    +0.047 A 
ATOM     20  C   UNL     1      -2.786  -2.054   1.915  0.00  0.00    +0.012 A 
ATOM     21  C   UNL     1      -0.769  -2.421   2.569  0.00  0.00    +0.004 A 
ATOM     22  C   UNL     1      -2.037  -2.857   2.810  0.00  0.00    +0.001 A 
ENDBRANCH   2  13
BRANCH  11  23
ATOM     23  C   UNL     1       7.136   5.544   0.681  0.00  0.00    +0.261 C 
ATOM     24  O   UNL     1       7.342   6.374   1.550  0.00  0.00    -0.269 OA
ATOM     25  N   UNL     1       7.885   5.520  -0.490  0.00  0.00    -0.306 N 
ATOM     26  H   UNL     1       7.688   4.840  -1.174  0.00  0.00    +0.149 HD
BRANCH  25  27
ATOM     27  C   UNL     1       8.941   6.468  -0.722  0.00  0.00    +0.140 C 
BRANCH  27  28
ATOM     28  C   UNL     1      10.292   5.830  -0.929  0.00  0.00    -0.030 A 
ATOM     29  C   UNL     1      10.973   6.028  -2.129  0.00  0.00    +0.007 A 
ATOM     30  C   UNL     1      10.948   5.114   0.083  0.00  0.00    +0.007 A 
ATOM     31  C   UNL     1      12.255   5.508  -2.308  0.00  0.00    +0.023 A 
ATOM     32  C   UNL     1      12.245   4.607  -0.108  0.00  0.00    +0.023 A 
ATOM     33  C   UNL     1      12.905   4.750  -1.327  0.00  0.00    +0.030 A 
BRANCH  33  34
ATOM     34  N   UNL     1      14.137   4.196  -1.575  0.00  0.00    -0.333 N 
ATOM     35  C   UNL     1      15.122   3.919  -0.532  0.00  0.00    +0.086 C 
ATOM     36  C   UNL     1      14.426   3.559  -2.867  0.00  0.00    +0.086 C 
ATOM     37  C   UNL     1      16.518   4.275  -1.076  0.00  0.00    -0.060 C 
ATOM     38  C   UNL     1      15.867   3.895  -3.281  0.00  0.00    -0.060 C 
ATOM     39  N   UNL     1      16.829   3.507  -2.270  0.00  0.00    +0.380 N 
ATOM     40  C   UNL     1      18.195   3.753  -2.721  0.00  0.00    -0.096 C 
ATOM     41  H   UNL     1      16.770   2.507  -2.078  0.00  0.00    -0.082 HD
ENDBRANCH  33  34
ENDBRANCH  27  28
ENDBRANCH  25  27
ENDBRANCH  11  23
TORSDOF 5
