REMARK  Name = CTX-1020816
REMARK  8 active torsions:
REMARK  status: ('A' for Active; 'I' for Inactive)
REMARK    1  A    between atoms: C_2  and  C_4
REMARK    2  A    between atoms: N_9  and  C_12
REMARK    3  A    between atoms: C_12  and  C_14
REMARK    4  A    between atoms: C_15  and  C_19
REMARK    5  A    between atoms: C_23  and  C_27
REMARK    6  A    between atoms: C_24  and  N_28
REMARK    7  A    between atoms: C_29  and  C_33
REMARK    8  A    between atoms: N_39  and  C_40
REMARK                            x       y       z     vdW  Elec       q    Type
REMARK                         _______ _______ _______ _____ _____    ______ ____
ROOT
ATOM      1  S   UNL     1       1.871  -0.723  -0.007  0.00  0.00    -0.088 S 
ATOM      2  C   UNL     1       2.198   0.958   0.084  0.00  0.00    +0.074 A 
ATOM      3  C   UNL     1       0.190  -0.461   0.019  0.00  0.00    -0.003 A 
ATOM      4  C   UNL     1       1.026   1.689   0.156  0.00  0.00    +0.026 A 
ATOM      5  C   UNL     1      -0.139   0.874   0.131  0.00  0.00    -0.019 A 
ATOM      6  C   UNL     1      -0.818  -1.554  -0.135  0.00  0.00    +0.062 C 
ATOM      7  C   UNL     1      -1.541   1.381   0.153  0.00  0.00    +0.144 C 
ATOM      8  C   UNL     1      -2.224  -1.012   0.172  0.00  0.00    +0.113 C 
ATOM      9  N   UNL     1      -2.450   0.361  -0.320  0.00  0.00    -0.290 N 
ATOM     10  C   UNL     1      -3.667   0.636  -0.929  0.00  0.00    +0.283 C 
ATOM     11  O   UNL     1      -4.315  -0.311  -1.391  0.00  0.00    -0.267 OA
ENDROOT
BRANCH  10  12
ATOM     12  C   UNL     1      -4.216   2.013  -1.031  0.00  0.00    +0.194 A 
ATOM     13  O   UNL     1      -5.597   1.946  -1.234  0.00  0.00    -0.449 OA
ATOM     14  C   UNL     1      -3.830   3.126  -1.798  0.00  0.00    +0.008 A 
ATOM     15  C   UNL     1      -5.738   2.235  -2.560  0.00  0.00    +0.153 A 
ATOM     16  C   UNL     1      -4.638   2.978  -2.968  0.00  0.00    +0.025 A 
ATOM     17  C   UNL     1      -2.789   4.170  -1.616  0.00  0.00    +0.048 C 
ATOM     18  C   UNL     1      -6.756   1.815  -3.405  0.00  0.00    +0.095 A 
ATOM     19  C   UNL     1      -4.561   3.389  -4.307  0.00  0.00    +0.012 A 
ATOM     20  C   UNL     1      -6.593   2.109  -4.759  0.00  0.00    +0.022 A 
ATOM     21  C   UNL     1      -5.514   2.884  -5.204  0.00  0.00    +0.002 A 
BRANCH  18  22
ATOM     22  C   UNL     1      -7.840   1.046  -2.894  0.00  0.00    +0.103 C 
ATOM     23  N   UNL     1      -8.740   0.437  -2.491  0.00  0.00    -0.191 NA
ENDBRANCH  18  22
ENDBRANCH  10  12
BRANCH   2  24
ATOM     24  C   UNL     1       3.538   1.527   0.079  0.00  0.00    +0.251 C 
ATOM     25  O   UNL     1       3.726   2.742   0.102  0.00  0.00    -0.270 OA
ATOM     26  N   UNL     1       4.584   0.636   0.055  0.00  0.00    -0.307 N 
ATOM     27  H   UNL     1       4.387  -0.328   0.017  0.00  0.00    +0.149 HD
BRANCH  26  28
ATOM     28  C   UNL     1       5.963   1.066   0.084  0.00  0.00    +0.139 C 
BRANCH  28  29
ATOM     29  C   UNL     1       6.702   0.640  -1.155  0.00  0.00    -0.030 A 
ATOM     30  C   UNL     1       6.276   1.075  -2.412  0.00  0.00    +0.007 A 
ATOM     31  C   UNL     1       7.856  -0.150  -1.078  0.00  0.00    +0.007 A 
ATOM     32  C   UNL     1       6.972   0.695  -3.560  0.00  0.00    +0.023 A 
ATOM     33  C   UNL     1       8.555  -0.518  -2.239  0.00  0.00    +0.023 A 
ATOM     34  C   UNL     1       8.113  -0.121  -3.503  0.00  0.00    +0.030 A 
BRANCH  34  35
ATOM     35  N   UNL     1       8.748  -0.454  -4.692  0.00  0.00    -0.333 N 
ATOM     36  C   UNL     1      10.168  -0.835  -4.731  0.00  0.00    +0.086 C 
ATOM     37  C   UNL     1       7.934  -1.229  -5.651  0.00  0.00    +0.086 C 
ATOM     38  C   UNL     1      10.699  -0.636  -6.178  0.00  0.00    -0.060 C 
ATOM     39  C   UNL     1       8.485  -1.008  -7.075  0.00  0.00    -0.060 C 
ATOM     40  N   UNL     1       9.913  -1.384  -7.191  0.00  0.00    +0.380 N 
ATOM     41  C   UNL     1      10.401  -1.104  -8.539  0.00  0.00    -0.096 C 
ATOM     42  H   UNL     1      10.019  -2.384  -7.020  0.00  0.00    -0.082 HD
ENDBRANCH  34  35
ENDBRANCH  28  29
ENDBRANCH  26  28
ENDBRANCH   2  24
TORSDOF 6
