REMARK  Name = CTX-1020771
REMARK  6 active torsions:
REMARK  status: ('A' for Active; 'I' for Inactive)
REMARK    1  A    between atoms: C_2  and  C_4
REMARK    2  A    between atoms: N_9  and  C_12
REMARK    3  A    between atoms: C_12  and  C_14
REMARK    4  A    between atoms: C_15  and  C_19
REMARK    5  A    between atoms: N_21  and  C_24
REMARK    6  A    between atoms: C_23  and  C_27
REMARK                            x       y       z     vdW  Elec       q    Type
REMARK                         _______ _______ _______ _____ _____    ______ ____
ROOT
ATOM      1  S   UNL     1       1.873  -0.701  -0.001  0.00  0.00    -0.088 S 
ATOM      2  C   UNL     1       2.190   0.981   0.051  0.00  0.00    +0.074 A 
ATOM      3  C   UNL     1       0.195  -0.447  -0.034  0.00  0.00    -0.003 A 
ATOM      4  C   UNL     1       1.010   1.710   0.026  0.00  0.00    +0.026 A 
ATOM      5  C   UNL     1      -0.158   0.889  -0.032  0.00  0.00    -0.019 A 
ATOM      6  C   UNL     1      -0.792  -1.565  -0.076  0.00  0.00    +0.062 C 
ATOM      7  C   UNL     1      -1.591   1.361  -0.052  0.00  0.00    +0.144 C 
ATOM      8  C   UNL     1      -2.163  -1.026   0.362  0.00  0.00    +0.113 C 
ATOM      9  N   UNL     1      -2.487   0.231  -0.344  0.00  0.00    -0.290 N 
ATOM     10  C   UNL     1      -3.445   0.384  -1.356  0.00  0.00    +0.283 C 
ATOM     11  O   UNL     1      -3.493   1.425  -2.017  0.00  0.00    -0.267 OA
ENDROOT
BRANCH  10  12
ATOM     12  C   UNL     1      -4.373  -0.707  -1.624  0.00  0.00    +0.194 A 
ATOM     13  O   UNL     1      -4.833  -1.463  -0.580  0.00  0.00    -0.450 OA
ATOM     14  C   UNL     1      -4.988  -1.127  -2.801  0.00  0.00    +0.008 A 
ATOM     15  C   UNL     1      -5.657  -2.413  -1.080  0.00  0.00    +0.136 A 
ATOM     16  C   UNL     1      -5.824  -2.232  -2.443  0.00  0.00    +0.024 A 
ATOM     17  C   UNL     1      -4.805  -0.581  -4.171  0.00  0.00    +0.048 C 
ATOM     18  C   UNL     1      -6.252  -3.428  -0.336  0.00  0.00    +0.047 A 
ATOM     19  C   UNL     1      -6.695  -3.103  -3.124  0.00  0.00    +0.012 A 
ATOM     20  C   UNL     1      -7.101  -4.291  -1.033  0.00  0.00    +0.004 A 
ATOM     21  C   UNL     1      -7.331  -4.125  -2.401  0.00  0.00    +0.001 A 
ENDBRANCH  10  12
BRANCH   2  22
ATOM     22  C   UNL     1       3.538   1.530   0.121  0.00  0.00    +0.251 C 
ATOM     23  O   UNL     1       3.752   2.742   0.184  0.00  0.00    -0.270 OA
ATOM     24  N   UNL     1       4.582   0.635   0.117  0.00  0.00    -0.305 N 
ATOM     25  H   UNL     1       4.394  -0.329   0.060  0.00  0.00    +0.149 HD
BRANCH  24  26
ATOM     26  C   UNL     1       5.948   1.087   0.196  0.00  0.00    +0.161 C 
BRANCH  26  27
ATOM     27  C   UNL     1       6.881  -0.077   0.210  0.00  0.00    +0.076 A 
ATOM     28  N   UNL     1       6.426  -1.383   0.154  0.00  0.00    -0.239 NA
ATOM     29  C   UNL     1       8.262  -0.062   0.279  0.00  0.00    +0.111 A 
ATOM     30  C   UNL     1       7.506  -2.133   0.195  0.00  0.00    +0.199 A 
ATOM     31  N   UNL     1       8.638  -1.373   0.275  0.00  0.00    -0.340 N 
ATOM     32  C   UNL     1       9.983  -1.882   0.347  0.00  0.00    +0.150 C 
ENDBRANCH  26  27
ENDBRANCH  24  26
ENDBRANCH   2  22
TORSDOF 4
