MODEL 1
REMARK VINA RESULT:   -11.772      0.000      0.000
REMARK INTER + INTRA:         -16.092
REMARK INTER:                 -15.213
REMARK INTRA:                  -0.879
REMARK UNBOUND:                -0.879
REMARK  Name = CTX-1020795
REMARK  7 active torsions:
REMARK  status: ('A' for Active; 'I' for Inactive)
REMARK    1  A    between atoms: C_8  and  C_11
REMARK    2  A    between atoms: C_9  and  C_12
REMARK    3  A    between atoms: C_21  and  C_23
REMARK    4  A    between atoms: N_26  and  C_27
REMARK    5  A    between atoms: C_27  and  C_28
REMARK    6  A    between atoms: C_33  and  N_34
REMARK    7  A    between atoms: N_39  and  C_40
REMARK                            x       y       z     vdW  Elec       q    Type
REMARK                         _______ _______ _______ _____ _____    ______ ____
ROOT
ATOM      1  C   UNL     1      23.499  -0.342 -23.721  0.00  0.00    +0.283 C 
ATOM      2  O   UNL     1      22.911  -0.557 -24.777  0.00  0.00    -0.267 OA
ATOM      3  N   UNL     1      24.657   0.577 -23.818  0.00  0.00    -0.289 N 
ATOM      4  C   UNL     1      26.045   0.845 -23.112  0.00  0.00    +0.163 C 
ATOM      5  C   UNL     1      24.438   1.525 -24.900  0.00  0.00    +0.113 C 
ATOM      6  C   UNL     1      26.809   2.258 -23.614  0.00  0.00    +0.063 A 
ATOM      7  C   UNL     1      25.673   1.682 -25.771  0.00  0.00    +0.056 C 
ATOM      8  N   UNL     1      27.565   3.129 -22.825  0.00  0.00    -0.245 NA
ATOM      9  C   UNL     1      26.509   2.603 -24.946  0.00  0.00    -0.023 A 
ATOM     10  C   UNL     1      27.857   4.394 -23.377  0.00  0.00    +0.126 A 
ATOM     11  C   UNL     1      26.763   3.887 -25.440  0.00  0.00    +0.008 A 
ATOM     12  C   UNL     1      27.394   4.793 -24.636  0.00  0.00    +0.033 A 
ENDROOT
BRANCH   1  20
ATOM     13 CL   UNL     1      21.649  -5.183 -21.572  0.00  0.00    -0.080 Cl
ATOM     14  C   UNL     1      21.542  -3.746 -20.665  0.00  0.00    +0.084 A 
ATOM     15  C   UNL     1      22.040  -2.516 -21.165  0.00  0.00    +0.154 A 
ATOM     16  C   UNL     1      20.964  -3.757 -19.381  0.00  0.00    +0.024 A 
ATOM     17  O   UNL     1      22.577  -2.285 -22.412  0.00  0.00    -0.448 OA
ATOM     18  C   UNL     1      22.027  -1.363 -20.408  0.00  0.00    +0.025 A 
ATOM     19  C   UNL     1      20.906  -2.601 -18.612  0.00  0.00    +0.002 A 
ATOM     20  C   UNL     1      22.918  -0.951 -22.481  0.00  0.00    +0.194 A 
ATOM     21  C   UNL     1      22.660  -0.358 -21.215  0.00  0.00    +0.008 A 
ATOM     22  C   UNL     1      21.461  -1.404 -19.100  0.00  0.00    +0.012 A 
ATOM     23  C   UNL     1      22.946   1.017 -20.674  0.00  0.00    +0.048 C 
ENDBRANCH   1  20
BRANCH  10  24
ATOM     24  C   UNL     1      28.718   5.502 -22.740  0.00  0.00    +0.263 C 
ATOM     25  O   UNL     1      28.150   6.569 -22.405  0.00  0.00    -0.269 OA
ATOM     26  N   UNL     1      30.077   5.393 -22.591  0.00  0.00    -0.306 N 
ATOM     27  H   UNL     1      30.533   4.553 -22.828  0.00  0.00    +0.149 HD
BRANCH  26  28
ATOM     28  C   UNL     1      30.847   6.522 -22.081  0.00  0.00    +0.140 C 
BRANCH  28  29
ATOM     29  C   UNL     1      31.827   7.031 -23.101  0.00  0.00    -0.030 A 
ATOM     30  C   UNL     1      33.132   7.344 -22.730  0.00  0.00    +0.007 A 
ATOM     31  C   UNL     1      31.442   7.241 -24.427  0.00  0.00    +0.007 A 
ATOM     32  C   UNL     1      34.047   7.808 -23.684  0.00  0.00    +0.023 A 
ATOM     33  C   UNL     1      32.352   7.767 -25.353  0.00  0.00    +0.023 A 
ATOM     34  C   UNL     1      33.694   8.014 -25.023  0.00  0.00    +0.030 A 
BRANCH  34  35
ATOM     35  N   UNL     1      34.626   8.379 -25.975  0.00  0.00    -0.333 N 
ATOM     36  C   UNL     1      34.298   8.400 -27.412  0.00  0.00    +0.086 C 
ATOM     37  C   UNL     1      35.977   8.865 -25.644  0.00  0.00    +0.086 C 
ATOM     38  C   UNL     1      35.423   7.728 -28.237  0.00  0.00    -0.060 C 
ATOM     39  C   UNL     1      37.042   8.181 -26.533  0.00  0.00    -0.060 C 
ATOM     40  N   UNL     1      36.742   8.340 -27.973  0.00  0.00    +0.380 N 
ATOM     41  C   UNL     1      37.781   7.739 -28.799  0.00  0.00    -0.096 C 
ATOM     42  H   UNL     1      36.719   9.331 -28.214  0.00  0.00    -0.082 HD
ENDBRANCH  34  35
ENDBRANCH  28  29
ENDBRANCH  26  28
ENDBRANCH  10  24
TORSDOF 5
ENDMDL
MODEL 2
REMARK VINA RESULT:   -11.498      3.885      7.092
REMARK INTER + INTRA:         -15.738
REMARK INTER:                 -15.161
REMARK INTRA:                  -0.577
REMARK UNBOUND:                -0.879
REMARK  Name = CTX-1020795
REMARK  7 active torsions:
REMARK  status: ('A' for Active; 'I' for Inactive)
REMARK    1  A    between atoms: C_8  and  C_11
REMARK    2  A    between atoms: C_9  and  C_12
REMARK    3  A    between atoms: C_21  and  C_23
REMARK    4  A    between atoms: N_26  and  C_27
REMARK    5  A    between atoms: C_27  and  C_28
REMARK    6  A    between atoms: C_33  and  N_34
REMARK    7  A    between atoms: N_39  and  C_40
REMARK                            x       y       z     vdW  Elec       q    Type
REMARK                         _______ _______ _______ _____ _____    ______ ____
ROOT
ATOM      1  C   UNL     1      20.087  -1.106 -17.791  0.00  0.00    +0.283 C 
ATOM      2  O   UNL     1      19.403  -2.126 -17.764  0.00  0.00    -0.267 OA
ATOM      3  N   UNL     1      21.116  -1.064 -18.856  0.00  0.00    -0.289 N 
ATOM      4  C   UNL     1      22.541  -0.439 -19.131  0.00  0.00    +0.163 C 
ATOM      5  C   UNL     1      20.664  -1.839 -20.002  0.00  0.00    +0.113 C 
ATOM      6  C   UNL     1      23.078  -0.623 -20.715  0.00  0.00    +0.063 A 
ATOM      7  C   UNL     1      21.760  -2.746 -20.538  0.00  0.00    +0.056 C 
ATOM      8  N   UNL     1      23.823   0.294 -21.461  0.00  0.00    -0.245 NA
ATOM      9  C   UNL     1      22.583  -1.787 -21.333  0.00  0.00    -0.023 A 
ATOM     10  C   UNL     1      23.904   0.067 -22.850  0.00  0.00    +0.126 A 
ATOM     11  C   UNL     1      22.631  -1.952 -22.721  0.00  0.00    +0.008 A 
ATOM     12  C   UNL     1      23.250  -1.000 -23.480  0.00  0.00    +0.033 A 
ENDROOT
BRANCH   1  20
ATOM     13 CL   UNL     1      21.675   3.962 -15.985  0.00  0.00    -0.080 Cl
ATOM     14  C   UNL     1      20.366   3.162 -15.248  0.00  0.00    +0.084 A 
ATOM     15  C   UNL     1      19.915   1.899 -15.711  0.00  0.00    +0.154 A 
ATOM     16  C   UNL     1      19.690   3.752 -14.163  0.00  0.00    +0.024 A 
ATOM     17  O   UNL     1      20.478   1.133 -16.707  0.00  0.00    -0.448 OA
ATOM     18  C   UNL     1      18.809   1.277 -15.170  0.00  0.00    +0.025 A 
ATOM     19  C   UNL     1      18.595   3.129 -13.577  0.00  0.00    +0.002 A 
ATOM     20  C   UNL     1      19.732  -0.021 -16.821  0.00  0.00    +0.194 A 
ATOM     21  C   UNL     1      18.631   0.070 -15.927  0.00  0.00    +0.008 A 
ATOM     22  C   UNL     1      18.124   1.906 -14.090  0.00  0.00    +0.012 A 
ATOM     23  C   UNL     1      17.438  -0.822 -15.710  0.00  0.00    +0.048 C 
ENDBRANCH   1  20
BRANCH  10  24
ATOM     24  C   UNL     1      24.707   0.890 -23.876  0.00  0.00    +0.263 C 
ATOM     25  O   UNL     1      24.847   0.419 -25.029  0.00  0.00    -0.269 OA
ATOM     26  N   UNL     1      25.326   2.073 -23.557  0.00  0.00    -0.306 N 
ATOM     27  H   UNL     1      25.206   2.466 -22.662  0.00  0.00    +0.149 HD
BRANCH  26  28
ATOM     28  C   UNL     1      26.161   2.747 -24.544  0.00  0.00    +0.140 C 
BRANCH  28  29
ATOM     29  C   UNL     1      27.184   3.633 -23.891  0.00  0.00    -0.030 A 
ATOM     30  C   UNL     1      27.976   3.150 -22.852  0.00  0.00    +0.007 A 
ATOM     31  C   UNL     1      27.335   4.967 -24.279  0.00  0.00    +0.007 A 
ATOM     32  C   UNL     1      28.936   3.974 -22.250  0.00  0.00    +0.023 A 
ATOM     33  C   UNL     1      28.255   5.795 -23.623  0.00  0.00    +0.023 A 
ATOM     34  C   UNL     1      29.120   5.311 -22.629  0.00  0.00    +0.030 A 
BRANCH  34  35
ATOM     35  N   UNL     1      30.132   6.086 -22.098  0.00  0.00    -0.333 N 
ATOM     36  C   UNL     1      31.247   6.577 -22.927  0.00  0.00    +0.086 C 
ATOM     37  C   UNL     1      30.142   6.565 -20.705  0.00  0.00    +0.086 C 
ATOM     38  C   UNL     1      32.599   6.363 -22.203  0.00  0.00    -0.060 C 
ATOM     39  C   UNL     1      31.533   6.357 -20.060  0.00  0.00    -0.060 C 
ATOM     40  N   UNL     1      32.610   6.981 -20.860  0.00  0.00    +0.380 N 
ATOM     41  C   UNL     1      33.906   6.825 -20.214  0.00  0.00    -0.096 C 
ATOM     42  H   UNL     1      32.445   7.985 -20.939  0.00  0.00    -0.082 HD
ENDBRANCH  34  35
ENDBRANCH  28  29
ENDBRANCH  26  28
ENDBRANCH  10  24
TORSDOF 5
ENDMDL
MODEL 3
REMARK VINA RESULT:   -11.400      5.670     13.960
REMARK INTER + INTRA:         -15.611
REMARK INTER:                 -15.242
REMARK INTRA:                  -0.368
REMARK UNBOUND:                -0.879
REMARK  Name = CTX-1020795
REMARK  7 active torsions:
REMARK  status: ('A' for Active; 'I' for Inactive)
REMARK    1  A    between atoms: C_8  and  C_11
REMARK    2  A    between atoms: C_9  and  C_12
REMARK    3  A    between atoms: C_21  and  C_23
REMARK    4  A    between atoms: N_26  and  C_27
REMARK    5  A    between atoms: C_27  and  C_28
REMARK    6  A    between atoms: C_33  and  N_34
REMARK    7  A    between atoms: N_39  and  C_40
REMARK                            x       y       z     vdW  Elec       q    Type
REMARK                         _______ _______ _______ _____ _____    ______ ____
ROOT
ATOM      1  C   UNL     1      30.392   5.005 -18.526  0.00  0.00    +0.283 C 
ATOM      2  O   UNL     1      31.253   5.314 -17.706  0.00  0.00    -0.267 OA
ATOM      3  N   UNL     1      29.227   4.276 -17.974  0.00  0.00    -0.289 N 
ATOM      4  C   UNL     1      28.154   3.205 -18.421  0.00  0.00    +0.163 C 
ATOM      5  C   UNL     1      29.008   4.679 -16.594  0.00  0.00    +0.113 C 
ATOM      6  C   UNL     1      26.918   2.964 -17.305  0.00  0.00    +0.063 A 
ATOM      7  C   UNL     1      28.760   3.484 -15.689  0.00  0.00    +0.056 C 
ATOM      8  N   UNL     1      25.573   2.710 -17.585  0.00  0.00    -0.245 NA
ATOM      9  C   UNL     1      27.327   3.180 -15.975  0.00  0.00    -0.023 A 
ATOM     10  C   UNL     1      24.666   2.840 -16.513  0.00  0.00    +0.126 A 
ATOM     11  C   UNL     1      26.395   3.361 -14.948  0.00  0.00    +0.008 A 
ATOM     12  C   UNL     1      25.065   3.236 -15.230  0.00  0.00    +0.033 A 
ENDROOT
BRANCH   1  20
ATOM     13 CL   UNL     1      32.985   8.928 -21.586  0.00  0.00    -0.080 Cl
ATOM     14  C   UNL     1      31.942   7.810 -22.333  0.00  0.00    +0.084 A 
ATOM     15  C   UNL     1      31.306   6.781 -21.592  0.00  0.00    +0.154 A 
ATOM     16  C   UNL     1      31.700   7.878 -23.719  0.00  0.00    +0.024 A 
ATOM     17  O   UNL     1      31.360   6.586 -20.230  0.00  0.00    -0.448 OA
ATOM     18  C   UNL     1      30.519   5.824 -22.199  0.00  0.00    +0.025 A 
ATOM     19  C   UNL     1      30.883   6.947 -24.349  0.00  0.00    +0.002 A 
ATOM     20  C   UNL     1      30.589   5.483 -19.932  0.00  0.00    +0.194 A 
ATOM     21  C   UNL     1      30.109   4.933 -21.152  0.00  0.00    +0.008 A 
ATOM     22  C   UNL     1      30.311   5.897 -23.608  0.00  0.00    +0.012 A 
ATOM     23  C   UNL     1      29.333   3.678 -21.449  0.00  0.00    +0.048 C 
ENDBRANCH   1  20
BRANCH  10  24
ATOM     24  C   UNL     1      23.151   2.557 -16.546  0.00  0.00    +0.263 C 
ATOM     25  O   UNL     1      22.694   1.708 -15.745  0.00  0.00    -0.269 OA
ATOM     26  N   UNL     1      22.306   3.143 -17.454  0.00  0.00    -0.306 N 
ATOM     27  H   UNL     1      22.647   3.828 -18.074  0.00  0.00    +0.149 HD
BRANCH  26  28
ATOM     28  C   UNL     1      20.903   2.749 -17.502  0.00  0.00    +0.140 C 
BRANCH  28  29
ATOM     29  C   UNL     1      20.734   1.367 -18.069  0.00  0.00    -0.030 A 
ATOM     30  C   UNL     1      21.491   0.956 -19.163  0.00  0.00    +0.007 A 
ATOM     31  C   UNL     1      19.789   0.483 -17.542  0.00  0.00    +0.007 A 
ATOM     32  C   UNL     1      21.340  -0.335 -19.684  0.00  0.00    +0.023 A 
ATOM     33  C   UNL     1      19.606  -0.781 -18.116  0.00  0.00    +0.023 A 
ATOM     34  C   UNL     1      20.411  -1.248 -19.167  0.00  0.00    +0.030 A 
BRANCH  34  35
ATOM     35  N   UNL     1      20.337  -2.550 -19.624  0.00  0.00    -0.333 N 
ATOM     36  C   UNL     1      20.277  -3.694 -18.696  0.00  0.00    +0.086 C 
ATOM     37  C   UNL     1      20.215  -2.904 -21.048  0.00  0.00    +0.086 C 
ATOM     38  C   UNL     1      21.250  -4.811 -19.146  0.00  0.00    -0.060 C 
ATOM     39  C   UNL     1      21.186  -4.052 -21.415  0.00  0.00    -0.060 C 
ATOM     40  N   UNL     1      21.000  -5.231 -20.541  0.00  0.00    +0.380 N 
ATOM     41  C   UNL     1      21.881  -6.323 -20.933  0.00  0.00    -0.096 C 
ATOM     42  H   UNL     1      20.046  -5.582 -20.632  0.00  0.00    -0.082 HD
ENDBRANCH  34  35
ENDBRANCH  28  29
ENDBRANCH  26  28
ENDBRANCH  10  24
TORSDOF 5
ENDMDL
MODEL 4
REMARK VINA RESULT:   -11.141      4.099      6.547
REMARK INTER + INTRA:         -15.276
REMARK INTER:                 -14.560
REMARK INTRA:                  -0.716
REMARK UNBOUND:                -0.879
REMARK  Name = CTX-1020795
REMARK  7 active torsions:
REMARK  status: ('A' for Active; 'I' for Inactive)
REMARK    1  A    between atoms: C_8  and  C_11
REMARK    2  A    between atoms: C_9  and  C_12
REMARK    3  A    between atoms: C_21  and  C_23
REMARK    4  A    between atoms: N_26  and  C_27
REMARK    5  A    between atoms: C_27  and  C_28
REMARK    6  A    between atoms: C_33  and  N_34
REMARK    7  A    between atoms: N_39  and  C_40
REMARK                            x       y       z     vdW  Elec       q    Type
REMARK                         _______ _______ _______ _____ _____    ______ ____
ROOT
ATOM      1  C   UNL     1      20.796  -0.517 -18.340  0.00  0.00    +0.283 C 
ATOM      2  O   UNL     1      19.715  -0.521 -17.756  0.00  0.00    -0.267 OA
ATOM      3  N   UNL     1      21.699   0.604 -17.989  0.00  0.00    -0.289 N 
ATOM      4  C   UNL     1      22.843   1.479 -18.640  0.00  0.00    +0.163 C 
ATOM      5  C   UNL     1      21.450   1.020 -16.617  0.00  0.00    +0.113 C 
ATOM      6  C   UNL     1      23.631   2.495 -17.555  0.00  0.00    +0.063 A 
ATOM      7  C   UNL     1      21.363   2.532 -16.493  0.00  0.00    +0.056 C 
ATOM      8  N   UNL     1      24.989   2.827 -17.550  0.00  0.00    -0.245 NA
ATOM      9  C   UNL     1      22.804   2.919 -16.497  0.00  0.00    -0.023 A 
ATOM     10  C   UNL     1      25.486   3.448 -16.386  0.00  0.00    +0.126 A 
ATOM     11  C   UNL     1      23.341   3.479 -15.333  0.00  0.00    +0.008 A 
ATOM     12  C   UNL     1      24.688   3.698 -15.264  0.00  0.00    +0.033 A 
ENDROOT
BRANCH   1  20
ATOM     13 CL   UNL     1      23.058  -1.864 -23.294  0.00  0.00    -0.080 Cl
ATOM     14  C   UNL     1      22.326  -3.062 -22.332  0.00  0.00    +0.084 A 
ATOM     15  C   UNL     1      21.783  -2.760 -21.057  0.00  0.00    +0.154 A 
ATOM     16  C   UNL     1      22.257  -4.394 -22.785  0.00  0.00    +0.024 A 
ATOM     17  O   UNL     1      21.694  -1.518 -20.468  0.00  0.00    -0.448 OA
ATOM     18  C   UNL     1      21.255  -3.737 -20.238  0.00  0.00    +0.025 A 
ATOM     19  C   UNL     1      21.697  -5.391 -21.994  0.00  0.00    +0.002 A 
ATOM     20  C   UNL     1      21.088  -1.678 -19.240  0.00  0.00    +0.194 A 
ATOM     21  C   UNL     1      20.871  -3.067 -19.028  0.00  0.00    +0.008 A 
ATOM     22  C   UNL     1      21.221  -5.083 -20.707  0.00  0.00    +0.012 A 
ATOM     23  C   UNL     1      20.364  -3.832 -17.835  0.00  0.00    +0.048 C 
ENDBRANCH   1  20
BRANCH  10  24
ATOM     24  C   UNL     1      26.921   3.963 -16.156  0.00  0.00    +0.263 C 
ATOM     25  O   UNL     1      27.078   5.188 -15.942  0.00  0.00    -0.269 OA
ATOM     26  N   UNL     1      28.024   3.153 -16.245  0.00  0.00    -0.306 N 
ATOM     27  H   UNL     1      27.915   2.185 -16.390  0.00  0.00    +0.149 HD
BRANCH  26  28
ATOM     28  C   UNL     1      29.360   3.726 -16.125  0.00  0.00    +0.140 C 
BRANCH  28  29
ATOM     29  C   UNL     1      29.802   4.375 -17.406  0.00  0.00    -0.030 A 
ATOM     30  C   UNL     1      30.246   5.695 -17.411  0.00  0.00    +0.007 A 
ATOM     31  C   UNL     1      29.738   3.688 -18.621  0.00  0.00    +0.007 A 
ATOM     32  C   UNL     1      30.668   6.296 -18.605  0.00  0.00    +0.023 A 
ATOM     33  C   UNL     1      30.102   4.326 -19.814  0.00  0.00    +0.023 A 
ATOM     34  C   UNL     1      30.629   5.627 -19.835  0.00  0.00    +0.030 A 
BRANCH  34  35
ATOM     35  N   UNL     1      31.135   6.193 -20.989  0.00  0.00    -0.333 N 
ATOM     36  C   UNL     1      32.486   5.868 -21.482  0.00  0.00    +0.086 C 
ATOM     37  C   UNL     1      30.355   7.081 -21.868  0.00  0.00    +0.086 C 
ATOM     38  C   UNL     1      33.239   7.157 -21.895  0.00  0.00    -0.060 C 
ATOM     39  C   UNL     1      31.183   8.323 -22.271  0.00  0.00    -0.060 C 
ATOM     40  N   UNL     1      32.476   7.948 -22.884  0.00  0.00    +0.380 N 
ATOM     41  C   UNL     1      33.222   9.126 -23.309  0.00  0.00    -0.096 C 
ATOM     42  H   UNL     1      32.314   7.391 -23.722  0.00  0.00    -0.082 HD
ENDBRANCH  34  35
ENDBRANCH  28  29
ENDBRANCH  26  28
ENDBRANCH  10  24
TORSDOF 5
ENDMDL
MODEL 5
REMARK VINA RESULT:   -11.023      3.279      4.008
REMARK INTER + INTRA:         -15.123
REMARK INTER:                 -14.465
REMARK INTRA:                  -0.659
REMARK UNBOUND:                -0.879
REMARK  Name = CTX-1020795
REMARK  7 active torsions:
REMARK  status: ('A' for Active; 'I' for Inactive)
REMARK    1  A    between atoms: C_8  and  C_11
REMARK    2  A    between atoms: C_9  and  C_12
REMARK    3  A    between atoms: C_21  and  C_23
REMARK    4  A    between atoms: N_26  and  C_27
REMARK    5  A    between atoms: C_27  and  C_28
REMARK    6  A    between atoms: C_33  and  N_34
REMARK    7  A    between atoms: N_39  and  C_40
REMARK                            x       y       z     vdW  Elec       q    Type
REMARK                         _______ _______ _______ _____ _____    ______ ____
ROOT
ATOM      1  C   UNL     1      24.308   1.752 -20.489  0.00  0.00    +0.283 C 
ATOM      2  O   UNL     1      23.477   1.342 -21.295  0.00  0.00    -0.267 OA
ATOM      3  N   UNL     1      25.582   2.224 -21.080  0.00  0.00    -0.289 N 
ATOM      4  C   UNL     1      27.113   2.339 -20.707  0.00  0.00    +0.163 C 
ATOM      5  C   UNL     1      25.336   2.746 -22.415  0.00  0.00    +0.113 C 
ATOM      6  C   UNL     1      28.025   3.216 -21.817  0.00  0.00    +0.063 A 
ATOM      7  C   UNL     1      26.363   2.242 -23.416  0.00  0.00    +0.056 C 
ATOM      8  N   UNL     1      29.094   4.071 -21.534  0.00  0.00    -0.245 NA
ATOM      9  C   UNL     1      27.526   3.132 -23.130  0.00  0.00    -0.023 A 
ATOM     10  C   UNL     1      29.514   4.927 -22.574  0.00  0.00    +0.126 A 
ATOM     11  C   UNL     1      27.925   4.035 -24.120  0.00  0.00    +0.008 A 
ATOM     12  C   UNL     1      28.885   4.961 -23.824  0.00  0.00    +0.033 A 
ENDROOT
BRANCH   1  20
ATOM     13 CL   UNL     1      26.116   3.169 -15.370  0.00  0.00    -0.080 Cl
ATOM     14  C   UNL     1      24.579   2.466 -15.572  0.00  0.00    +0.084 A 
ATOM     15  C   UNL     1      24.078   2.136 -16.857  0.00  0.00    +0.154 A 
ATOM     16  C   UNL     1      23.761   2.210 -14.454  0.00  0.00    +0.024 A 
ATOM     17  O   UNL     1      24.742   2.247 -18.059  0.00  0.00    -0.448 OA
ATOM     18  C   UNL     1      22.805   1.637 -17.038  0.00  0.00    +0.025 A 
ATOM     19  C   UNL     1      22.488   1.673 -14.606  0.00  0.00    +0.002 A 
ATOM     20  C   UNL     1      23.893   1.805 -19.051  0.00  0.00    +0.194 A 
ATOM     21  C   UNL     1      22.641   1.488 -18.457  0.00  0.00    +0.008 A 
ATOM     22  C   UNL     1      21.985   1.411 -15.894  0.00  0.00    +0.012 A 
ATOM     23  C   UNL     1      21.321   1.081 -19.055  0.00  0.00    +0.048 C 
ENDBRANCH   1  20
BRANCH  10  24
ATOM     24  C   UNL     1      30.700   5.911 -22.537  0.00  0.00    +0.263 C 
ATOM     25  O   UNL     1      31.747   5.549 -21.950  0.00  0.00    -0.269 OA
ATOM     26  N   UNL     1      30.628   7.179 -23.055  0.00  0.00    -0.306 N 
ATOM     27  H   UNL     1      29.821   7.469 -23.539  0.00  0.00    +0.149 HD
BRANCH  26  28
ATOM     28  C   UNL     1      31.749   8.098 -22.891  0.00  0.00    +0.140 C 
BRANCH  28  29
ATOM     29  C   UNL     1      32.684   8.047 -24.066  0.00  0.00    -0.030 A 
ATOM     30  C   UNL     1      34.037   8.338 -23.905  0.00  0.00    +0.007 A 
ATOM     31  C   UNL     1      32.215   7.752 -25.348  0.00  0.00    +0.007 A 
ATOM     32  C   UNL     1      34.909   8.281 -25.000  0.00  0.00    +0.023 A 
ATOM     33  C   UNL     1      33.089   7.762 -26.442  0.00  0.00    +0.023 A 
ATOM     34  C   UNL     1      34.469   7.973 -26.294  0.00  0.00    +0.030 A 
BRANCH  34  35
ATOM     35  N   UNL     1      35.350   7.825 -27.347  0.00  0.00    -0.333 N 
ATOM     36  C   UNL     1      36.574   7.013 -27.224  0.00  0.00    +0.086 C 
ATOM     37  C   UNL     1      35.106   8.373 -28.692  0.00  0.00    +0.086 C 
ATOM     38  C   UNL     1      37.789   7.765 -27.821  0.00  0.00    -0.060 C 
ATOM     39  C   UNL     1      36.373   9.073 -29.240  0.00  0.00    -0.060 C 
ATOM     40  N   UNL     1      37.550   8.177 -29.220  0.00  0.00    +0.380 N 
ATOM     41  C   UNL     1      38.721   8.830 -29.789  0.00  0.00    -0.096 C 
ATOM     42  H   UNL     1      37.368   7.355 -29.797  0.00  0.00    -0.082 HD
ENDBRANCH  34  35
ENDBRANCH  28  29
ENDBRANCH  26  28
ENDBRANCH  10  24
TORSDOF 5
ENDMDL
