REMARK  Name = CTX-1020770
REMARK  5 active torsions:
REMARK  status: ('A' for Active; 'I' for Inactive)
REMARK    1  A    between atoms: C_2  and  C_4
REMARK    2  A    between atoms: N_9  and  C_12
REMARK    3  A    between atoms: C_12  and  C_14
REMARK    4  A    between atoms: C_15  and  C_19
REMARK    5  A    between atoms: C_23  and  C_26
REMARK                            x       y       z     vdW  Elec       q    Type
REMARK                         _______ _______ _______ _____ _____    ______ ____
ROOT
ATOM      1  S   UNL     1       1.883  -0.698   0.002  0.00  0.00    -0.088 S 
ATOM      2  C   UNL     1       2.197   0.985   0.047  0.00  0.00    +0.074 A 
ATOM      3  C   UNL     1       0.206  -0.445  -0.034  0.00  0.00    -0.003 A 
ATOM      4  C   UNL     1       1.017   1.713   0.018  0.00  0.00    +0.026 A 
ATOM      5  C   UNL     1      -0.149   0.890  -0.037  0.00  0.00    -0.019 A 
ATOM      6  C   UNL     1      -0.780  -1.565  -0.077  0.00  0.00    +0.062 C 
ATOM      7  C   UNL     1      -1.583   1.359  -0.058  0.00  0.00    +0.144 C 
ATOM      8  C   UNL     1      -2.152  -1.028   0.359  0.00  0.00    +0.113 C 
ATOM      9  N   UNL     1      -2.477   0.227  -0.348  0.00  0.00    -0.290 N 
ATOM     10  C   UNL     1      -3.444   0.384  -1.352  0.00  0.00    +0.283 C 
ATOM     11  O   UNL     1      -3.497   1.427  -2.007  0.00  0.00    -0.267 OA
ENDROOT
BRANCH  10  12
ATOM     12  C   UNL     1      -4.374  -0.706  -1.619  0.00  0.00    +0.194 A 
ATOM     13  O   UNL     1      -4.834  -1.462  -0.575  0.00  0.00    -0.450 OA
ATOM     14  C   UNL     1      -4.991  -1.124  -2.797  0.00  0.00    +0.008 A 
ATOM     15  C   UNL     1      -5.659  -2.411  -1.076  0.00  0.00    +0.136 A 
ATOM     16  C   UNL     1      -5.823  -2.233  -2.440  0.00  0.00    +0.024 A 
ATOM     17  C   UNL     1      -4.813  -0.573  -4.165  0.00  0.00    +0.048 C 
ATOM     18  C   UNL     1      -6.257  -3.425  -0.332  0.00  0.00    +0.047 A 
ATOM     19  C   UNL     1      -6.687  -3.110  -3.123  0.00  0.00    +0.012 A 
ATOM     20  C   UNL     1      -7.096  -4.295  -1.031  0.00  0.00    +0.004 A 
ATOM     21  C   UNL     1      -7.319  -4.135  -2.401  0.00  0.00    +0.001 A 
ENDBRANCH  10  12
BRANCH   2  22
ATOM     22  C   UNL     1       3.544   1.533   0.116  0.00  0.00    +0.251 C 
ATOM     23  O   UNL     1       3.763   2.743   0.175  0.00  0.00    -0.270 OA
ATOM     24  N   UNL     1       4.586   0.636   0.116  0.00  0.00    -0.305 N 
ATOM     25  H   UNL     1       4.397  -0.329   0.063  0.00  0.00    +0.149 HD
BRANCH  24  26
ATOM     26  C   UNL     1       5.952   1.089   0.191  0.00  0.00    +0.160 C 
BRANCH  26  27
ATOM     27  C   UNL     1       6.895  -0.073   0.194  0.00  0.00    +0.065 A 
ATOM     28  N   UNL     1       6.404  -1.378   0.142  0.00  0.00    -0.251 NA
ATOM     29  C   UNL     1       8.275   0.019   0.249  0.00  0.00    +0.071 A 
ATOM     30  C   UNL     1       7.409  -2.227   0.159  0.00  0.00    +0.156 A 
ATOM     31  S   UNL     1       8.979  -1.543   0.235  0.00  0.00    -0.084 S 
ENDBRANCH  26  27
ENDBRANCH  24  26
ENDBRANCH   2  22
TORSDOF 4
