REMARK  Name = CTX-1020769
REMARK  6 active torsions:
REMARK  status: ('A' for Active; 'I' for Inactive)
REMARK    1  A    between atoms: C_2  and  C_4
REMARK    2  A    between atoms: N_3  and  C_5
REMARK    3  A    between atoms: C_5  and  C_8
REMARK    4  A    between atoms: N_16  and  C_19
REMARK    5  A    between atoms: C_21  and  C_23
REMARK    6  A    between atoms: C_25  and  C_28
REMARK                            x       y       z     vdW  Elec       q    Type
REMARK                         _______ _______ _______ _____ _____    ______ ____
ROOT
ATOM      1  C   UNL     1       3.033   1.214   0.451  0.00  0.00    +0.126 A 
ATOM      2  N   UNL     1       4.107   1.589  -0.306  0.00  0.00    -0.245 NA
ATOM      3  C   UNL     1       2.551   1.955   1.526  0.00  0.00    +0.033 A 
ATOM      4  C   UNL     1       4.721   2.768   0.025  0.00  0.00    +0.063 A 
ATOM      5  C   UNL     1       3.192   3.135   1.859  0.00  0.00    +0.008 A 
ATOM      6  C   UNL     1       4.300   3.551   1.115  0.00  0.00    -0.023 A 
ATOM      7  C   UNL     1       5.925   3.219  -0.817  0.00  0.00    +0.163 C 
ATOM      8  C   UNL     1       4.953   4.863   1.463  0.00  0.00    +0.056 C 
ATOM      9  N   UNL     1       6.314   4.614  -0.571  0.00  0.00    -0.289 N 
ATOM     10  C   UNL     1       6.325   5.032   0.822  0.00  0.00    +0.113 C 
ATOM     11  C   UNL     1       6.824   5.416  -1.601  0.00  0.00    +0.283 C 
ATOM     12  O   UNL     1       7.372   4.918  -2.583  0.00  0.00    -0.267 OA
ENDROOT
BRANCH  11  13
ATOM     13  C   UNL     1       6.431   6.836  -1.551  0.00  0.00    +0.194 A 
ATOM     14  O   UNL     1       5.252   7.068  -0.869  0.00  0.00    -0.450 OA
ATOM     15  C   UNL     1       6.534   7.860  -2.501  0.00  0.00    +0.008 A 
ATOM     16  C   UNL     1       4.428   7.625  -1.792  0.00  0.00    +0.136 A 
ATOM     17  C   UNL     1       5.171   8.043  -2.886  0.00  0.00    +0.024 A 
ATOM     18  C   UNL     1       7.707   8.550  -3.078  0.00  0.00    +0.048 C 
ATOM     19  C   UNL     1       3.052   7.691  -1.675  0.00  0.00    +0.047 A 
ATOM     20  C   UNL     1       4.479   8.523  -4.008  0.00  0.00    +0.012 A 
ATOM     21  C   UNL     1       2.382   8.117  -2.821  0.00  0.00    +0.004 A 
ATOM     22  C   UNL     1       3.076   8.505  -3.972  0.00  0.00    +0.001 A 
ENDBRANCH  11  13
BRANCH   1  24
ATOM     23  O   UNL     1       1.318  -0.388   0.791  0.00  0.00    -0.269 OA
ATOM     24  C   UNL     1       2.305  -0.059   0.131  0.00  0.00    +0.263 C 
ATOM     25  N   UNL     1       2.773  -0.834  -0.902  0.00  0.00    -0.304 N 
ATOM     26  H   UNL     1       3.555  -0.549  -1.427  0.00  0.00    +0.149 HD
BRANCH  25  27
ATOM     27  C   UNL     1       2.097  -2.074  -1.203  0.00  0.00    +0.161 C 
BRANCH  27  28
ATOM     28  C   UNL     1       2.740  -2.820  -2.323  0.00  0.00    +0.076 A 
ATOM     29  N   UNL     1       3.872  -2.367  -2.966  0.00  0.00    -0.239 NA
ATOM     30  C   UNL     1       2.328  -4.022  -2.870  0.00  0.00    +0.111 A 
ATOM     31  C   UNL     1       4.124  -3.275  -3.896  0.00  0.00    +0.199 A 
ATOM     32  N   UNL     1       3.219  -4.288  -3.869  0.00  0.00    -0.340 N 
ATOM     33  C   UNL     1       3.200  -5.420  -4.760  0.00  0.00    +0.150 C 
ENDBRANCH  27  28
ENDBRANCH  25  27
ENDBRANCH   1  24
TORSDOF 4
