MODEL 1
REMARK VINA RESULT:   -11.495      0.000      0.000
REMARK INTER + INTRA:         -15.258
REMARK INTER:                 -14.855
REMARK INTRA:                  -0.404
REMARK UNBOUND:                -0.404
REMARK  Name = CTX-1020800
REMARK  7 active torsions:
REMARK  status: ('A' for Active; 'I' for Inactive)
REMARK    1  A    between atoms: C_2  and  C_4
REMARK    2  A    between atoms: C_8  and  C_13
REMARK    3  A    between atoms: C_19  and  C_22
REMARK    4  A    between atoms: N_24  and  C_25
REMARK    5  A    between atoms: C_25  and  C_26
REMARK    6  A    between atoms: C_31  and  N_32
REMARK    7  A    between atoms: N_37  and  C_38
REMARK                            x       y       z     vdW  Elec       q    Type
REMARK                         _______ _______ _______ _____ _____    ______ ____
ROOT
ATOM      1  O   UNL     1      29.538   3.621 -20.932  0.00  0.00    -0.267 OA
ATOM      2  C   UNL     1      29.336   4.224 -22.011  0.00  0.00    +0.283 C 
ATOM      3  N   UNL     1      28.305   3.552 -22.903  0.00  0.00    -0.290 N 
ATOM      4  C   UNL     1      27.698   2.287 -22.360  0.00  0.00    +0.145 C 
ATOM      5  C   UNL     1      27.707   4.133 -24.159  0.00  0.00    +0.114 C 
ATOM      6  C   UNL     1      26.446   1.814 -23.044  0.00  0.00    -0.009 A 
ATOM      7  C   UNL     1      26.390   3.539 -24.860  0.00  0.00    +0.072 C 
ATOM      8  C   UNL     1      25.853   2.353 -24.157  0.00  0.00    +0.023 A 
ATOM      9  C   UNL     1      25.632   0.723 -22.657  0.00  0.00    +0.037 A 
ATOM     10  N   UNL     1      24.713   1.620 -24.460  0.00  0.00    -0.354 N 
ATOM     11  C   UNL     1      24.565   0.594 -23.522  0.00  0.00    +0.102 A 
ATOM     12  H   UNL     1      24.105   1.795 -25.215  0.00  0.00    +0.166 HD
ENDROOT
BRANCH   2  13
ATOM     13  C   UNL     1      30.161   5.613 -22.372  0.00  0.00    +0.194 A 
ATOM     14  O   UNL     1      31.538   5.547 -22.065  0.00  0.00    -0.450 OA
ATOM     15  C   UNL     1      30.271   7.018 -21.818  0.00  0.00    +0.008 A 
ATOM     16  C   UNL     1      31.981   7.028 -21.583  0.00  0.00    +0.136 A 
ATOM     17  C   UNL     1      31.470   8.227 -22.769  0.00  0.00    +0.024 A 
ATOM     18  C   UNL     1      30.360   6.344 -20.031  0.00  0.00    +0.048 C 
ATOM     19  C   UNL     1      33.252   7.090 -21.259  0.00  0.00    +0.047 A 
ATOM     20  C   UNL     1      32.869   8.460 -24.155  0.00  0.00    +0.012 A 
ATOM     21  C   UNL     1      33.398   7.036 -22.631  0.00  0.00    +0.004 A 
ATOM     22  C   UNL     1      33.874   8.180 -23.197  0.00  0.00    +0.001 A 
ENDBRANCH   2  13
BRANCH  11  23
ATOM     23  C   UNL     1      23.505  -0.409 -23.471  0.00  0.00    +0.261 C 
ATOM     24  O   UNL     1      22.703  -0.600 -24.370  0.00  0.00    -0.269 OA
ATOM     25  N   UNL     1      23.473  -1.159 -22.301  0.00  0.00    -0.306 N 
ATOM     26  H   UNL     1      24.132  -0.974 -21.593  0.00  0.00    +0.149 HD
BRANCH  25  27
ATOM     27  C   UNL     1      22.499  -2.198 -22.104  0.00  0.00    +0.140 C 
BRANCH  27  28
ATOM     28  C   UNL     1      21.613  -1.976 -20.903  0.00  0.00    -0.030 A 
ATOM     29  C   UNL     1      21.800  -0.849 -20.105  0.00  0.00    +0.007 A 
ATOM     30  C   UNL     1      20.530  -2.816 -20.604  0.00  0.00    +0.007 A 
ATOM     31  C   UNL     1      20.943  -0.591 -19.036  0.00  0.00    +0.023 A 
ATOM     32  C   UNL     1      19.667  -2.535 -19.530  0.00  0.00    +0.023 A 
ATOM     33  C   UNL     1      19.887  -1.443 -18.693  0.00  0.00    +0.030 A 
BRANCH  33  34
ATOM     34  N   UNL     1      19.113  -1.187 -17.587  0.00  0.00    -0.333 N 
ATOM     35  C   UNL     1      17.719  -0.755 -17.660  0.00  0.00    +0.086 C 
ATOM     36  C   UNL     1      19.543  -1.628 -16.253  0.00  0.00    +0.086 C 
ATOM     37  C   UNL     1      17.483   0.309 -16.572  0.00  0.00    -0.060 C 
ATOM     38  C   UNL     1      19.183  -0.543 -15.226  0.00  0.00    -0.060 C 
ATOM     39  N   UNL     1      17.772  -0.217 -15.249  0.00  0.00    +0.380 N 
ATOM     40  C   UNL     1      17.438   0.748 -14.207  0.00  0.00    -0.096 C 
ATOM     41  H   UNL     1      17.206  -1.044 -15.061  0.00  0.00    -0.082 HD
ENDBRANCH  33  34
ENDBRANCH  27  28
ENDBRANCH  25  27
ENDBRANCH  11  23
TORSDOF 5
ENDMDL
MODEL 2
REMARK VINA RESULT:   -11.303      4.667     15.453
REMARK INTER + INTRA:         -15.010
REMARK INTER:                 -14.203
REMARK INTRA:                  -0.807
REMARK UNBOUND:                -0.404
REMARK  Name = CTX-1020800
REMARK  7 active torsions:
REMARK  status: ('A' for Active; 'I' for Inactive)
REMARK    1  A    between atoms: C_2  and  C_4
REMARK    2  A    between atoms: C_8  and  C_13
REMARK    3  A    between atoms: C_19  and  C_22
REMARK    4  A    between atoms: N_24  and  C_25
REMARK    5  A    between atoms: C_25  and  C_26
REMARK    6  A    between atoms: C_31  and  N_32
REMARK    7  A    between atoms: N_37  and  C_38
REMARK                            x       y       z     vdW  Elec       q    Type
REMARK                         _______ _______ _______ _____ _____    ______ ____
ROOT
ATOM      1  O   UNL     1      25.506   3.196 -24.015  0.00  0.00    -0.267 OA
ATOM      2  C   UNL     1      26.137   2.465 -23.217  0.00  0.00    +0.283 C 
ATOM      3  N   UNL     1      27.552   2.944 -22.937  0.00  0.00    -0.290 N 
ATOM      4  C   UNL     1      27.967   4.201 -23.649  0.00  0.00    +0.145 C 
ATOM      5  C   UNL     1      28.479   2.397 -21.881  0.00  0.00    +0.114 C 
ATOM      6  C   UNL     1      29.202   4.877 -23.122  0.00  0.00    -0.009 A 
ATOM      7  C   UNL     1      29.811   3.158 -21.405  0.00  0.00    +0.072 C 
ATOM      8  C   UNL     1      30.036   4.427 -22.131  0.00  0.00    +0.023 A 
ATOM      9  C   UNL     1      29.733   6.119 -23.545  0.00  0.00    +0.037 A 
ATOM     10  N   UNL     1      31.056   5.351 -21.945  0.00  0.00    -0.354 N 
ATOM     11  C   UNL     1      30.873   6.418 -22.829  0.00  0.00    +0.102 A 
ATOM     12  H   UNL     1      31.791   5.268 -21.295  0.00  0.00    +0.166 HD
ENDROOT
BRANCH   2  13
ATOM     13  C   UNL     1      25.436   1.109 -22.576  0.00  0.00    +0.194 A 
ATOM     14  O   UNL     1      24.046   1.240 -22.361  0.00  0.00    -0.450 OA
ATOM     15  C   UNL     1      25.410   0.394 -21.241  0.00  0.00    +0.008 A 
ATOM     16  C   UNL     1      23.698   0.393 -21.026  0.00  0.00    +0.136 A 
ATOM     17  C   UNL     1      24.347  -1.239 -21.160  0.00  0.00    +0.024 A 
ATOM     18  C   UNL     1      25.196   2.054 -20.317  0.00  0.00    +0.048 C 
ATOM     19  C   UNL     1      22.423   0.448 -20.717  0.00  0.00    +0.047 A 
ATOM     20  C   UNL     1      23.029  -2.431 -22.040  0.00  0.00    +0.012 A 
ATOM     21  C   UNL     1      22.330  -0.411 -21.794  0.00  0.00    +0.004 A 
ATOM     22  C   UNL     1      21.966  -1.685 -21.474  0.00  0.00    +0.001 A 
ENDBRANCH   2  13
BRANCH  11  23
ATOM     23  C   UNL     1      31.717   7.602 -22.969  0.00  0.00    +0.261 C 
ATOM     24  O   UNL     1      31.350   8.736 -22.713  0.00  0.00    -0.269 OA
ATOM     25  N   UNL     1      33.007   7.343 -23.419  0.00  0.00    -0.306 N 
ATOM     26  H   UNL     1      33.269   6.416 -23.623  0.00  0.00    +0.149 HD
BRANCH  25  27
ATOM     27  C   UNL     1      33.965   8.401 -23.593  0.00  0.00    +0.140 C 
BRANCH  27  28
ATOM     28  C   UNL     1      34.594   8.428 -24.964  0.00  0.00    -0.030 A 
ATOM     29  C   UNL     1      35.952   8.712 -25.096  0.00  0.00    +0.007 A 
ATOM     30  C   UNL     1      33.885   8.081 -26.123  0.00  0.00    +0.007 A 
ATOM     31  C   UNL     1      36.565   8.667 -26.348  0.00  0.00    +0.023 A 
ATOM     32  C   UNL     1      34.519   8.028 -27.376  0.00  0.00    +0.023 A 
ATOM     33  C   UNL     1      35.863   8.370 -27.521  0.00  0.00    +0.030 A 
BRANCH  33  34
ATOM     34  N   UNL     1      36.492   8.410 -28.741  0.00  0.00    -0.333 N 
ATOM     35  C   UNL     1      37.760   7.738 -29.017  0.00  0.00    +0.086 C 
ATOM     36  C   UNL     1      35.778   8.873 -29.939  0.00  0.00    +0.086 C 
ATOM     37  C   UNL     1      38.615   8.662 -29.905  0.00  0.00    -0.060 C 
ATOM     38  C   UNL     1      36.736   9.706 -30.804  0.00  0.00    -0.060 C 
ATOM     39  N   UNL     1      37.935   8.971 -31.151  0.00  0.00    +0.380 N 
ATOM     40  C   UNL     1      38.788   9.747 -32.045  0.00  0.00    -0.096 C 
ATOM     41  H   UNL     1      37.703   8.115 -31.654  0.00  0.00    -0.082 HD
ENDBRANCH  33  34
ENDBRANCH  27  28
ENDBRANCH  25  27
ENDBRANCH  11  23
TORSDOF 5
ENDMDL
MODEL 3
REMARK VINA RESULT:   -10.075      6.900     12.353
REMARK INTER + INTRA:         -13.424
REMARK INTER:                 -12.687
REMARK INTRA:                  -0.737
REMARK UNBOUND:                -0.404
REMARK  Name = CTX-1020800
REMARK  7 active torsions:
REMARK  status: ('A' for Active; 'I' for Inactive)
REMARK    1  A    between atoms: C_2  and  C_4
REMARK    2  A    between atoms: C_8  and  C_13
REMARK    3  A    between atoms: C_19  and  C_22
REMARK    4  A    between atoms: N_24  and  C_25
REMARK    5  A    between atoms: C_25  and  C_26
REMARK    6  A    between atoms: C_31  and  N_32
REMARK    7  A    between atoms: N_37  and  C_38
REMARK                            x       y       z     vdW  Elec       q    Type
REMARK                         _______ _______ _______ _____ _____    ______ ____
ROOT
ATOM      1  O   UNL     1      39.730   9.440 -27.196  0.00  0.00    -0.267 OA
ATOM      2  C   UNL     1      38.976   9.376 -28.194  0.00  0.00    +0.283 C 
ATOM      3  N   UNL     1      37.573   8.888 -27.870  0.00  0.00    -0.290 N 
ATOM      4  C   UNL     1      37.314   8.562 -26.425  0.00  0.00    +0.145 C 
ATOM      5  C   UNL     1      36.395   8.894 -28.809  0.00  0.00    +0.114 C 
ATOM      6  C   UNL     1      35.870   8.428 -26.031  0.00  0.00    -0.009 A 
ATOM      7  C   UNL     1      34.879   8.695 -28.316  0.00  0.00    +0.072 C 
ATOM      8  C   UNL     1      34.776   8.479 -26.856  0.00  0.00    +0.023 A 
ATOM      9  C   UNL     1      35.364   8.234 -24.723  0.00  0.00    +0.037 A 
ATOM     10  N   UNL     1      33.627   8.315 -26.092  0.00  0.00    -0.354 N 
ATOM     11  C   UNL     1      33.987   8.162 -24.751  0.00  0.00    +0.102 A 
ATOM     12  H   UNL     1      32.706   8.309 -26.441  0.00  0.00    +0.166 HD
ENDROOT
BRANCH   2  13
ATOM     13  C   UNL     1      39.527   9.790 -29.699  0.00  0.00    +0.194 A 
ATOM     14  O   UNL     1      40.641  10.658 -29.674  0.00  0.00    -0.450 OA
ATOM     15  C   UNL     1      39.075  10.668 -30.848  0.00  0.00    +0.008 A 
ATOM     16  C   UNL     1      40.495  11.642 -30.951  0.00  0.00    +0.136 A 
ATOM     17  C   UNL     1      40.234  10.699 -32.415  0.00  0.00    +0.024 A 
ATOM     18  C   UNL     1      38.598  12.068 -29.637  0.00  0.00    +0.048 C 
ATOM     19  C   UNL     1      41.478  12.509 -31.029  0.00  0.00    +0.047 A 
ATOM     20  C   UNL     1      41.973  10.202 -33.229  0.00  0.00    +0.012 A 
ATOM     21  C   UNL     1      42.168  11.387 -31.443  0.00  0.00    +0.004 A 
ATOM     22  C   UNL     1      42.548  11.405 -32.751  0.00  0.00    +0.001 A 
ENDBRANCH   2  13
BRANCH  11  23
ATOM     23  C   UNL     1      33.091   7.962 -23.614  0.00  0.00    +0.261 C 
ATOM     24  O   UNL     1      32.323   8.811 -23.194  0.00  0.00    -0.269 OA
ATOM     25  N   UNL     1      33.169   6.702 -23.032  0.00  0.00    -0.306 N 
ATOM     26  H   UNL     1      33.804   6.043 -23.393  0.00  0.00    +0.149 HD
BRANCH  25  27
ATOM     27  C   UNL     1      32.339   6.343 -21.914  0.00  0.00    +0.140 C 
BRANCH  27  28
ATOM     28  C   UNL     1      31.074   5.622 -22.306  0.00  0.00    -0.030 A 
ATOM     29  C   UNL     1      30.714   4.449 -21.645  0.00  0.00    +0.007 A 
ATOM     30  C   UNL     1      30.179   6.137 -23.255  0.00  0.00    +0.007 A 
ATOM     31  C   UNL     1      29.510   3.811 -21.943  0.00  0.00    +0.023 A 
ATOM     32  C   UNL     1      28.963   5.489 -23.536  0.00  0.00    +0.023 A 
ATOM     33  C   UNL     1      28.628   4.284 -22.922  0.00  0.00    +0.030 A 
BRANCH  33  34
ATOM     34  N   UNL     1      27.489   3.583 -23.233  0.00  0.00    -0.333 N 
ATOM     35  C   UNL     1      26.929   2.534 -22.384  0.00  0.00    +0.086 C 
ATOM     36  C   UNL     1      26.585   4.053 -24.292  0.00  0.00    +0.086 C 
ATOM     37  C   UNL     1      26.422   1.395 -23.288  0.00  0.00    -0.060 C 
ATOM     38  C   UNL     1      26.061   2.842 -25.079  0.00  0.00    -0.060 C 
ATOM     39  N   UNL     1      25.414   1.872 -24.219  0.00  0.00    +0.380 N 
ATOM     40  C   UNL     1      24.846   0.775 -24.997  0.00  0.00    -0.096 C 
ATOM     41  H   UNL     1      24.634   2.296 -23.717  0.00  0.00    -0.082 HD
ENDBRANCH  33  34
ENDBRANCH  27  28
ENDBRANCH  25  27
ENDBRANCH  11  23
TORSDOF 5
ENDMDL
MODEL 4
REMARK VINA RESULT:    -9.683      2.741      3.535
REMARK INTER + INTRA:         -12.916
REMARK INTER:                 -12.212
REMARK INTRA:                  -0.704
REMARK UNBOUND:                -0.404
REMARK  Name = CTX-1020800
REMARK  7 active torsions:
REMARK  status: ('A' for Active; 'I' for Inactive)
REMARK    1  A    between atoms: C_2  and  C_4
REMARK    2  A    between atoms: C_8  and  C_13
REMARK    3  A    between atoms: C_19  and  C_22
REMARK    4  A    between atoms: N_24  and  C_25
REMARK    5  A    between atoms: C_25  and  C_26
REMARK    6  A    between atoms: C_31  and  N_32
REMARK    7  A    between atoms: N_37  and  C_38
REMARK                            x       y       z     vdW  Elec       q    Type
REMARK                         _______ _______ _______ _____ _____    ______ ____
ROOT
ATOM      1  O   UNL     1      30.579   5.027 -21.392  0.00  0.00    -0.267 OA
ATOM      2  C   UNL     1      30.260   5.157 -22.597  0.00  0.00    +0.283 C 
ATOM      3  N   UNL     1      29.063   4.314 -23.007  0.00  0.00    -0.290 N 
ATOM      4  C   UNL     1      28.458   3.470 -21.919  0.00  0.00    +0.145 C 
ATOM      5  C   UNL     1      28.327   4.402 -24.319  0.00  0.00    +0.114 C 
ATOM      6  C   UNL     1      27.088   2.921 -22.202  0.00  0.00    -0.009 A 
ATOM      7  C   UNL     1      26.881   3.744 -24.559  0.00  0.00    +0.072 C 
ATOM      8  C   UNL     1      26.374   3.027 -23.368  0.00  0.00    +0.023 A 
ATOM      9  C   UNL     1      26.266   2.196 -21.306  0.00  0.00    +0.037 A 
ATOM     10  N   UNL     1      25.152   2.385 -23.210  0.00  0.00    -0.354 N 
ATOM     11  C   UNL     1      25.075   1.861 -21.917  0.00  0.00    +0.102 A 
ATOM     12  H   UNL     1      24.453   2.311 -23.899  0.00  0.00    +0.166 HD
ENDROOT
BRANCH   2  13
ATOM     13  C   UNL     1      31.118   6.160 -23.596  0.00  0.00    +0.194 A 
ATOM     14  O   UNL     1      32.334   6.611 -23.035  0.00  0.00    -0.450 OA
ATOM     15  C   UNL     1      31.012   7.584 -24.101  0.00  0.00    +0.008 A 
ATOM     16  C   UNL     1      32.563   8.121 -23.571  0.00  0.00    +0.136 A 
ATOM     17  C   UNL     1      32.412   8.169 -25.326  0.00  0.00    +0.024 A 
ATOM     18  C   UNL     1      30.561   8.209 -22.352  0.00  0.00    +0.048 C 
ATOM     19  C   UNL     1      33.669   8.655 -23.105  0.00  0.00    +0.047 A 
ATOM     20  C   UNL     1      34.165   7.797 -26.176  0.00  0.00    +0.012 A 
ATOM     21  C   UNL     1      34.235   7.794 -24.025  0.00  0.00    +0.004 A 
ATOM     22  C   UNL     1      34.831   8.408 -25.085  0.00  0.00    +0.001 A 
ENDBRANCH   2  13
BRANCH  11  23
ATOM     23  C   UNL     1      23.966   1.109 -21.335  0.00  0.00    +0.261 C 
ATOM     24  O   UNL     1      23.010   0.700 -21.972  0.00  0.00    -0.269 OA
ATOM     25  N   UNL     1      24.079   0.876 -19.969  0.00  0.00    -0.306 N 
ATOM     26  H   UNL     1      24.861   1.225 -19.484  0.00  0.00    +0.149 HD
BRANCH  25  27
ATOM     27  C   UNL     1      23.077   0.136 -19.251  0.00  0.00    +0.140 C 
BRANCH  27  28
ATOM     28  C   UNL     1      22.491   0.888 -18.082  0.00  0.00    -0.030 A 
ATOM     29  C   UNL     1      21.371   0.380 -17.426  0.00  0.00    +0.007 A 
ATOM     30  C   UNL     1      23.087   2.043 -17.557  0.00  0.00    +0.007 A 
ATOM     31  C   UNL     1      20.862   1.023 -16.298  0.00  0.00    +0.023 A 
ATOM     32  C   UNL     1      22.570   2.672 -16.411  0.00  0.00    +0.023 A 
ATOM     33  C   UNL     1      21.415   2.203 -15.788  0.00  0.00    +0.030 A 
BRANCH  33  34
ATOM     34  N   UNL     1      20.835   2.841 -14.719  0.00  0.00    -0.333 N 
ATOM     35  C   UNL     1      19.427   2.696 -14.359  0.00  0.00    +0.086 C 
ATOM     36  C   UNL     1      21.665   3.470 -13.682  0.00  0.00    +0.086 C 
ATOM     37  C   UNL     1      18.894   4.073 -13.919  0.00  0.00    -0.060 C 
ATOM     38  C   UNL     1      21.007   4.786 -13.242  0.00  0.00    -0.060 C 
ATOM     39  N   UNL     1      19.645   4.590 -12.787  0.00  0.00    +0.380 N 
ATOM     40  C   UNL     1      19.071   5.837 -12.292  0.00  0.00    -0.096 C 
ATOM     41  H   UNL     1      19.615   3.934 -12.007  0.00  0.00    -0.082 HD
ENDBRANCH  33  34
ENDBRANCH  27  28
ENDBRANCH  25  27
ENDBRANCH  11  23
TORSDOF 5
ENDMDL
MODEL 5
REMARK VINA RESULT:    -9.537      3.727      5.275
REMARK INTER + INTRA:         -12.728
REMARK INTER:                 -12.134
REMARK INTRA:                  -0.595
REMARK UNBOUND:                -0.404
REMARK  Name = CTX-1020800
REMARK  7 active torsions:
REMARK  status: ('A' for Active; 'I' for Inactive)
REMARK    1  A    between atoms: C_2  and  C_4
REMARK    2  A    between atoms: C_8  and  C_13
REMARK    3  A    between atoms: C_19  and  C_22
REMARK    4  A    between atoms: N_24  and  C_25
REMARK    5  A    between atoms: C_25  and  C_26
REMARK    6  A    between atoms: C_31  and  N_32
REMARK    7  A    between atoms: N_37  and  C_38
REMARK                            x       y       z     vdW  Elec       q    Type
REMARK                         _______ _______ _______ _____ _____    ______ ____
ROOT
ATOM      1  O   UNL     1      32.558   7.079 -20.416  0.00  0.00    -0.267 OA
ATOM      2  C   UNL     1      32.082   6.458 -21.395  0.00  0.00    +0.283 C 
ATOM      3  N   UNL     1      31.182   5.297 -21.003  0.00  0.00    -0.290 N 
ATOM      4  C   UNL     1      31.006   5.079 -19.525  0.00  0.00    +0.145 C 
ATOM      5  C   UNL     1      30.315   4.495 -21.939  0.00  0.00    +0.114 C 
ATOM      6  C   UNL     1      29.863   4.189 -19.126  0.00  0.00    -0.009 A 
ATOM      7  C   UNL     1      29.140   3.524 -21.431  0.00  0.00    +0.072 C 
ATOM      8  C   UNL     1      29.027   3.486 -19.956  0.00  0.00    +0.023 A 
ATOM      9  C   UNL     1      29.424   3.916 -17.808  0.00  0.00    +0.037 A 
ATOM     10  N   UNL     1      28.103   2.793 -19.185  0.00  0.00    -0.354 N 
ATOM     11  C   UNL     1      28.344   3.058 -17.834  0.00  0.00    +0.102 A 
ATOM     12  H   UNL     1      27.392   2.208 -19.534  0.00  0.00    +0.166 HD
ENDROOT
BRANCH   2  13
ATOM     13  C   UNL     1      32.454   6.907 -22.944  0.00  0.00    +0.194 A 
ATOM     14  O   UNL     1      33.601   7.726 -23.034  0.00  0.00    -0.450 OA
ATOM     15  C   UNL     1      31.899   7.848 -23.993  0.00  0.00    +0.008 A 
ATOM     16  C   UNL     1      33.338   8.766 -24.247  0.00  0.00    +0.136 A 
ATOM     17  C   UNL     1      32.848   7.893 -25.696  0.00  0.00    +0.024 A 
ATOM     18  C   UNL     1      31.648   9.218 -22.683  0.00  0.00    +0.048 C 
ATOM     19  C   UNL     1      34.342   9.594 -24.423  0.00  0.00    +0.047 A 
ATOM     20  C   UNL     1      34.443   7.357 -26.746  0.00  0.00    +0.012 A 
ATOM     21  C   UNL     1      34.920   8.461 -24.961  0.00  0.00    +0.004 A 
ATOM     22  C   UNL     1      35.130   8.516 -26.307  0.00  0.00    +0.001 A 
ENDBRANCH   2  13
BRANCH  11  23
ATOM     23  C   UNL     1      27.609   2.531 -16.687  0.00  0.00    +0.261 C 
ATOM     24  O   UNL     1      27.783   1.420 -16.217  0.00  0.00    -0.269 OA
ATOM     25  N   UNL     1      26.675   3.408 -16.146  0.00  0.00    -0.306 N 
ATOM     26  H   UNL     1      26.555   4.296 -16.555  0.00  0.00    +0.149 HD
BRANCH  25  27
ATOM     27  C   UNL     1      25.882   3.045 -15.003  0.00  0.00    +0.140 C 
BRANCH  27  28
ATOM     28  C   UNL     1      24.540   2.456 -15.361  0.00  0.00    -0.030 A 
ATOM     29  C   UNL     1      23.658   2.082 -14.349  0.00  0.00    +0.007 A 
ATOM     30  C   UNL     1      24.093   2.354 -16.687  0.00  0.00    +0.007 A 
ATOM     31  C   UNL     1      22.384   1.606 -14.662  0.00  0.00    +0.023 A 
ATOM     32  C   UNL     1      22.802   1.884 -16.985  0.00  0.00    +0.023 A 
ATOM     33  C   UNL     1      21.939   1.452 -15.980  0.00  0.00    +0.030 A 
BRANCH  33  34
ATOM     34  N   UNL     1      20.705   0.910 -16.242  0.00  0.00    -0.333 N 
ATOM     35  C   UNL     1      19.969   0.082 -15.290  0.00  0.00    +0.086 C 
ATOM     36  C   UNL     1      19.905   1.384 -17.380  0.00  0.00    +0.086 C 
ATOM     37  C   UNL     1      19.294  -1.065 -16.065  0.00  0.00    -0.060 C 
ATOM     38  C   UNL     1      19.199   0.184 -18.030  0.00  0.00    -0.060 C 
ATOM     39  N   UNL     1      18.389  -0.552 -17.081  0.00  0.00    +0.380 N 
ATOM     40  C   UNL     1      17.659  -1.632 -17.738  0.00  0.00    -0.096 C 
ATOM     41  H   UNL     1      17.684   0.052 -16.660  0.00  0.00    -0.082 HD
ENDBRANCH  33  34
ENDBRANCH  27  28
ENDBRANCH  25  27
ENDBRANCH  11  23
TORSDOF 5
ENDMDL
