REMARK  Name = CTX-1020811
REMARK  8 active torsions:
REMARK  status: ('A' for Active; 'I' for Inactive)
REMARK    1  A    between atoms: C_2  and  C_4
REMARK    2  A    between atoms: N_3  and  C_5
REMARK    3  A    between atoms: C_5  and  C_8
REMARK    4  A    between atoms: C_19  and  N_22
REMARK    5  A    between atoms: C_21  and  C_24
REMARK    6  A    between atoms: C_28  and  C_33
REMARK    7  A    between atoms: C_33  and  C_37
REMARK    8  A    between atoms: N_34  and  C_38
REMARK                            x       y       z     vdW  Elec       q    Type
REMARK                         _______ _______ _______ _____ _____    ______ ____
ROOT
ATOM      1  C   UNL     1       3.152  -1.102  -0.760  0.00  0.00    +0.126 A 
ATOM      2  N   UNL     1       4.081  -1.753   0.003  0.00  0.00    -0.245 NA
ATOM      3  C   UNL     1       2.821  -1.466  -2.059  0.00  0.00    +0.033 A 
ATOM      4  C   UNL     1       4.723  -2.814  -0.572  0.00  0.00    +0.063 A 
ATOM      5  C   UNL     1       3.460  -2.561  -2.617  0.00  0.00    +0.008 A 
ATOM      6  C   UNL     1       4.430  -3.246  -1.877  0.00  0.00    -0.023 A 
ATOM      7  C   UNL     1       5.824  -3.507   0.234  0.00  0.00    +0.163 C 
ATOM      8  C   UNL     1       5.064  -4.480  -2.467  0.00  0.00    +0.056 C 
ATOM      9  N   UNL     1       6.166  -4.830  -0.291  0.00  0.00    -0.289 N 
ATOM     10  C   UNL     1       6.326  -4.918  -1.734  0.00  0.00    +0.113 C 
ATOM     11  C   UNL     1       6.577  -5.850   0.573  0.00  0.00    +0.283 C 
ATOM     12  O   UNL     1       7.064  -5.594   1.675  0.00  0.00    -0.267 OA
ENDROOT
BRANCH  11  13
ATOM     13  C   UNL     1       6.156  -7.210   0.190  0.00  0.00    +0.194 A 
ATOM     14  O   UNL     1       5.009  -7.238  -0.588  0.00  0.00    -0.450 OA
ATOM     15  C   UNL     1       6.113  -8.381   0.949  0.00  0.00    +0.010 A 
ATOM     16  C   UNL     1       4.100  -7.902   0.168  0.00  0.00    +0.136 A 
ATOM     17  C   UNL     1       4.726  -8.516   1.239  0.00  0.00    +0.024 A 
ATOM     18  C   UNL     1       2.734  -7.931  -0.071  0.00  0.00    +0.047 A 
ATOM     19  C   UNL     1       3.942  -9.176   2.195  0.00  0.00    +0.012 A 
ATOM     20  C   UNL     1       1.964  -8.552   0.909  0.00  0.00    +0.004 A 
ATOM     21  C   UNL     1       2.549  -9.141   2.035  0.00  0.00    +0.001 A 
BRANCH  15  22
ATOM     22  C   UNL     1       7.160  -9.404   1.234  0.00  0.00    +0.036 C 
ATOM     23  C   UNL     1       6.899 -10.645   0.358  0.00  0.00    +0.009 C 
ENDBRANCH  15  22
ENDBRANCH  11  13
BRANCH   1  25
ATOM     24  O   UNL     1       1.772   0.827  -0.853  0.00  0.00    -0.269 OA
ATOM     25  C   UNL     1       2.400   0.043  -0.151  0.00  0.00    +0.263 C 
ATOM     26  N   UNL     1       2.419   0.100   1.221  0.00  0.00    -0.306 N 
ATOM     27  H   UNL     1       2.962  -0.555   1.716  0.00  0.00    +0.149 HD
BRANCH  26  28
ATOM     28  C   UNL     1       1.666   1.088   1.962  0.00  0.00    +0.140 C 
BRANCH  28  29
ATOM     29  C   UNL     1       2.571   1.847   2.901  0.00  0.00    -0.030 A 
ATOM     30  C   UNL     1       3.242   2.978   2.454  0.00  0.00    +0.007 A 
ATOM     31  C   UNL     1       2.760   1.421   4.213  0.00  0.00    +0.007 A 
ATOM     32  C   UNL     1       4.085   3.687   3.309  0.00  0.00    +0.023 A 
ATOM     33  C   UNL     1       3.602   2.139   5.076  0.00  0.00    +0.023 A 
ATOM     34  C   UNL     1       4.278   3.288   4.647  0.00  0.00    +0.030 A 
BRANCH  34  35
ATOM     35  N   UNL     1       5.064   4.064   5.479  0.00  0.00    -0.333 N 
ATOM     36  C   UNL     1       4.897   4.025   6.939  0.00  0.00    +0.086 C 
ATOM     37  C   UNL     1       6.456   4.334   5.072  0.00  0.00    +0.086 C 
ATOM     38  C   UNL     1       5.360   5.380   7.527  0.00  0.00    -0.060 C 
ATOM     39  C   UNL     1       6.917   5.675   5.693  0.00  0.00    -0.060 C 
ATOM     40  N   UNL     1       6.757   5.722   7.168  0.00  0.00    +0.380 N 
ATOM     41  C   UNL     1       7.099   7.051   7.672  0.00  0.00    -0.096 C 
ATOM     42  H   UNL     1       7.388   5.044   7.596  0.00  0.00    -0.082 HD
ENDBRANCH  34  35
ENDBRANCH  28  29
ENDBRANCH  26  28
ENDBRANCH   1  25
TORSDOF 6
