MODEL 1
REMARK VINA RESULT:   -12.076      0.000      0.000
REMARK INTER + INTRA:         -16.489
REMARK INTER:                 -15.606
REMARK INTRA:                  -0.883
REMARK UNBOUND:                -0.883
REMARK  Name = CTX-1020752
REMARK  8 active torsions:
REMARK  status: ('A' for Active; 'I' for Inactive)
REMARK    1  A    between atoms: C_2  and  C_4
REMARK    2  A    between atoms: N_3  and  C_5
REMARK    3  A    between atoms: C_5  and  C_8
REMARK    4  A    between atoms: C_19  and  N_22
REMARK    5  A    between atoms: C_21  and  C_24
REMARK    6  A    between atoms: N_27  and  C_32
REMARK    7  A    between atoms: C_28  and  C_34
REMARK    8  A    between atoms: N_35  and  C_38
REMARK                            x       y       z     vdW  Elec       q    Type
REMARK                         _______ _______ _______ _____ _____    ______ ____
ROOT
ATOM      1  C   UNL     1      24.820   2.960 -16.305  0.00  0.00    +0.126 A 
ATOM      2  N   UNL     1      24.847   2.086 -17.349  0.00  0.00    -0.245 NA
ATOM      3  C   UNL     1      23.660   3.393 -15.681  0.00  0.00    +0.033 A 
ATOM      4  C   UNL     1      23.640   1.648 -17.810  0.00  0.00    +0.063 A 
ATOM      5  C   UNL     1      22.443   2.927 -16.157  0.00  0.00    +0.008 A 
ATOM      6  C   UNL     1      22.422   2.063 -17.251  0.00  0.00    -0.023 A 
ATOM      7  C   UNL     1      23.631   0.700 -19.007  0.00  0.00    +0.163 C 
ATOM      8  C   UNL     1      21.097   1.539 -17.746  0.00  0.00    +0.056 C 
ATOM      9  N   UNL     1      22.332   0.034 -19.216  0.00  0.00    -0.290 N 
ATOM     10  C   UNL     1      21.187   0.926 -19.137  0.00  0.00    +0.113 C 
ATOM     11  C   UNL     1      22.340  -1.286 -19.662  0.00  0.00    +0.264 C 
ATOM     12  O   UNL     1      23.421  -1.830 -19.895  0.00  0.00    -0.268 OA
ENDROOT
BRANCH  11  13
ATOM     13  C   UNL     1      21.102  -2.044 -19.874  0.00  0.00    +0.108 A 
ATOM     14  N   UNL     1      20.795  -3.054 -18.980  0.00  0.00    -0.339 N 
ATOM     15  C   UNL     1      20.393  -2.563 -20.961  0.00  0.00    -0.013 A 
ATOM     16  C   UNL     1      21.066  -4.232 -19.627  0.00  0.00    +0.050 A 
ATOM     17  C   UNL     1      20.168  -2.846 -17.698  0.00  0.00    +0.149 C 
ATOM     18  C   UNL     1      20.800  -3.937 -20.970  0.00  0.00    +0.004 A 
ATOM     19  C   UNL     1      19.099  -2.090 -21.530  0.00  0.00    +0.047 C 
ATOM     20  C   UNL     1      21.442  -5.500 -19.183  0.00  0.00    +0.026 A 
ATOM     21  C   UNL     1      20.804  -4.979 -21.908  0.00  0.00    +0.010 A 
ATOM     22  C   UNL     1      21.574  -6.491 -20.163  0.00  0.00    +0.002 A 
ATOM     23  C   UNL     1      21.248  -6.242 -21.499  0.00  0.00    +0.001 A 
ENDBRANCH  11  13
BRANCH   1  25
ATOM     24  O   UNL     1      26.314   3.598 -14.577  0.00  0.00    -0.269 OA
ATOM     25  C   UNL     1      26.115   3.497 -15.789  0.00  0.00    +0.263 C 
ATOM     26  N   UNL     1      27.061   3.832 -16.732  0.00  0.00    -0.306 N 
ATOM     27  H   UNL     1      26.851   3.699 -17.685  0.00  0.00    +0.149 HD
BRANCH  26  28
ATOM     28  C   UNL     1      28.347   4.370 -16.371  0.00  0.00    +0.140 C 
BRANCH  28  29
ATOM     29  C   UNL     1      29.103   4.829 -17.587  0.00  0.00    -0.030 A 
ATOM     30  C   UNL     1      29.486   6.168 -17.709  0.00  0.00    +0.007 A 
ATOM     31  C   UNL     1      29.461   3.937 -18.603  0.00  0.00    +0.007 A 
ATOM     32  C   UNL     1      30.178   6.605 -18.838  0.00  0.00    +0.023 A 
ATOM     33  C   UNL     1      30.168   4.383 -19.728  0.00  0.00    +0.023 A 
ATOM     34  C   UNL     1      30.530   5.726 -19.873  0.00  0.00    +0.030 A 
BRANCH  34  35
ATOM     35  N   UNL     1      31.267   6.209 -20.943  0.00  0.00    -0.333 N 
ATOM     36  C   UNL     1      32.713   6.436 -20.829  0.00  0.00    +0.086 C 
ATOM     37  C   UNL     1      30.864   5.780 -22.296  0.00  0.00    +0.086 C 
ATOM     38  C   UNL     1      33.131   7.507 -21.866  0.00  0.00    -0.060 C 
ATOM     39  C   UNL     1      31.312   6.846 -23.324  0.00  0.00    -0.060 C 
ATOM     40  N   UNL     1      32.763   7.143 -23.256  0.00  0.00    +0.380 N 
ATOM     41  C   UNL     1      33.101   8.231 -24.171  0.00  0.00    -0.096 C 
ATOM     42  H   UNL     1      33.289   6.314 -23.536  0.00  0.00    -0.082 HD
ENDBRANCH  34  35
ENDBRANCH  28  29
ENDBRANCH  26  28
ENDBRANCH   1  25
TORSDOF 5
ENDMDL
MODEL 2
REMARK VINA RESULT:   -11.937      3.916      6.634
REMARK INTER + INTRA:         -16.310
REMARK INTER:                 -15.365
REMARK INTRA:                  -0.945
REMARK UNBOUND:                -0.883
REMARK  Name = CTX-1020752
REMARK  8 active torsions:
REMARK  status: ('A' for Active; 'I' for Inactive)
REMARK    1  A    between atoms: C_2  and  C_4
REMARK    2  A    between atoms: N_3  and  C_5
REMARK    3  A    between atoms: C_5  and  C_8
REMARK    4  A    between atoms: C_19  and  N_22
REMARK    5  A    between atoms: C_21  and  C_24
REMARK    6  A    between atoms: N_27  and  C_32
REMARK    7  A    between atoms: C_28  and  C_34
REMARK    8  A    between atoms: N_35  and  C_38
REMARK                            x       y       z     vdW  Elec       q    Type
REMARK                         _______ _______ _______ _____ _____    ______ ____
ROOT
ATOM      1  C   UNL     1      28.978   4.925 -22.945  0.00  0.00    +0.126 A 
ATOM      2  N   UNL     1      28.600   3.767 -22.337  0.00  0.00    -0.245 NA
ATOM      3  C   UNL     1      28.342   5.468 -24.051  0.00  0.00    +0.033 A 
ATOM      4  C   UNL     1      27.544   3.102 -22.890  0.00  0.00    +0.063 A 
ATOM      5  C   UNL     1      27.263   4.784 -24.592  0.00  0.00    +0.008 A 
ATOM      6  C   UNL     1      26.867   3.572 -24.026  0.00  0.00    -0.023 A 
ATOM      7  C   UNL     1      27.119   1.778 -22.259  0.00  0.00    +0.163 C 
ATOM      8  C   UNL     1      25.676   2.848 -24.602  0.00  0.00    +0.056 C 
ATOM      9  N   UNL     1      25.793   1.315 -22.708  0.00  0.00    -0.290 N 
ATOM     10  C   UNL     1      25.589   1.398 -24.145  0.00  0.00    +0.113 C 
ATOM     11  C   UNL     1      24.979   0.671 -21.779  0.00  0.00    +0.264 C 
ATOM     12  O   UNL     1      25.408   0.484 -20.638  0.00  0.00    -0.268 OA
ENDROOT
BRANCH  11  13
ATOM     13  C   UNL     1      23.632   0.197 -22.119  0.00  0.00    +0.108 A 
ATOM     14  N   UNL     1      22.711   0.061 -21.096  0.00  0.00    -0.339 N 
ATOM     15  C   UNL     1      23.066  -0.748 -22.979  0.00  0.00    -0.013 A 
ATOM     16  C   UNL     1      22.607  -1.285 -20.854  0.00  0.00    +0.050 A 
ATOM     17  C   UNL     1      21.934   1.145 -20.547  0.00  0.00    +0.149 C 
ATOM     18  C   UNL     1      22.837  -1.863 -22.109  0.00  0.00    +0.004 A 
ATOM     19  C   UNL     1      22.285  -0.510 -24.226  0.00  0.00    +0.047 C 
ATOM     20  C   UNL     1      22.282  -2.027 -19.719  0.00  0.00    +0.026 A 
ATOM     21  C   UNL     1      22.632  -3.239 -22.270  0.00  0.00    +0.010 A 
ATOM     22  C   UNL     1      22.221  -3.416 -19.878  0.00  0.00    +0.002 A 
ATOM     23  C   UNL     1      22.377  -4.013 -21.132  0.00  0.00    +0.001 A 
ENDBRANCH  11  13
BRANCH   1  25
ATOM     24  O   UNL     1      30.908   5.135 -21.583  0.00  0.00    -0.269 OA
ATOM     25  C   UNL     1      30.153   5.668 -22.399  0.00  0.00    +0.263 C 
ATOM     26  N   UNL     1      30.352   6.942 -22.879  0.00  0.00    -0.306 N 
ATOM     27  H   UNL     1      29.729   7.300 -23.553  0.00  0.00    +0.149 HD
BRANCH  26  28
ATOM     28  C   UNL     1      31.441   7.771 -22.429  0.00  0.00    +0.140 C 
BRANCH  28  29
ATOM     29  C   UNL     1      32.464   7.959 -23.514  0.00  0.00    -0.030 A 
ATOM     30  C   UNL     1      32.127   7.699 -24.846  0.00  0.00    +0.007 A 
ATOM     31  C   UNL     1      33.754   8.416 -23.228  0.00  0.00    +0.007 A 
ATOM     32  C   UNL     1      33.073   7.860 -25.858  0.00  0.00    +0.023 A 
ATOM     33  C   UNL     1      34.693   8.587 -24.254  0.00  0.00    +0.023 A 
ATOM     34  C   UNL     1      34.376   8.303 -25.586  0.00  0.00    +0.030 A 
BRANCH  34  35
ATOM     35  N   UNL     1      35.254   8.497 -26.641  0.00  0.00    -0.333 N 
ATOM     36  C   UNL     1      34.762   8.800 -27.991  0.00  0.00    +0.086 C 
ATOM     37  C   UNL     1      36.540   9.156 -26.343  0.00  0.00    +0.086 C 
ATOM     38  C   UNL     1      35.831   8.352 -29.019  0.00  0.00    -0.060 C 
ATOM     39  C   UNL     1      37.590   8.721 -27.394  0.00  0.00    -0.060 C 
ATOM     40  N   UNL     1      37.156   8.979 -28.788  0.00  0.00    +0.380 N 
ATOM     41  C   UNL     1      38.138   8.448 -29.731  0.00  0.00    -0.096 C 
ATOM     42  H   UNL     1      37.080   9.986 -28.936  0.00  0.00    -0.082 HD
ENDBRANCH  34  35
ENDBRANCH  28  29
ENDBRANCH  26  28
ENDBRANCH   1  25
TORSDOF 5
ENDMDL
MODEL 3
REMARK VINA RESULT:   -11.288      3.675      6.914
REMARK INTER + INTRA:         -15.471
REMARK INTER:                 -15.365
REMARK INTRA:                  -0.106
REMARK UNBOUND:                -0.883
REMARK  Name = CTX-1020752
REMARK  8 active torsions:
REMARK  status: ('A' for Active; 'I' for Inactive)
REMARK    1  A    between atoms: C_2  and  C_4
REMARK    2  A    between atoms: N_3  and  C_5
REMARK    3  A    between atoms: C_5  and  C_8
REMARK    4  A    between atoms: C_19  and  N_22
REMARK    5  A    between atoms: C_21  and  C_24
REMARK    6  A    between atoms: N_27  and  C_32
REMARK    7  A    between atoms: C_28  and  C_34
REMARK    8  A    between atoms: N_35  and  C_38
REMARK                            x       y       z     vdW  Elec       q    Type
REMARK                         _______ _______ _______ _____ _____    ______ ____
ROOT
ATOM      1  C   UNL     1      29.079   4.884 -22.676  0.00  0.00    +0.126 A 
ATOM      2  N   UNL     1      28.822   3.807 -21.884  0.00  0.00    -0.245 NA
ATOM      3  C   UNL     1      28.380   5.182 -23.836  0.00  0.00    +0.033 A 
ATOM      4  C   UNL     1      27.827   2.968 -22.296  0.00  0.00    +0.063 A 
ATOM      5  C   UNL     1      27.365   4.324 -24.234  0.00  0.00    +0.008 A 
ATOM      6  C   UNL     1      27.095   3.186 -23.473  0.00  0.00    -0.023 A 
ATOM      7  C   UNL     1      27.540   1.727 -21.454  0.00  0.00    +0.163 C 
ATOM      8  C   UNL     1      25.972   2.272 -23.895  0.00  0.00    +0.056 C 
ATOM      9  N   UNL     1      26.259   1.078 -21.788  0.00  0.00    -0.290 N 
ATOM     10  C   UNL     1      26.030   0.912 -23.214  0.00  0.00    +0.113 C 
ATOM     11  C   UNL     1      25.522   0.516 -20.748  0.00  0.00    +0.264 C 
ATOM     12  O   UNL     1      25.980   0.554 -19.604  0.00  0.00    -0.268 OA
ENDROOT
BRANCH  11  13
ATOM     13  C   UNL     1      24.223  -0.128 -20.972  0.00  0.00    +0.108 A 
ATOM     14  N   UNL     1      23.215   0.621 -21.552  0.00  0.00    -0.339 N 
ATOM     15  C   UNL     1      23.394  -1.025 -20.292  0.00  0.00    -0.013 A 
ATOM     16  C   UNL     1      22.346   0.939 -20.538  0.00  0.00    +0.050 A 
ATOM     17  C   UNL     1      23.079   0.849 -22.969  0.00  0.00    +0.149 C 
ATOM     18  C   UNL     1      22.439  -0.156 -19.670  0.00  0.00    +0.004 A 
ATOM     19  C   UNL     1      23.109  -2.450 -20.622  0.00  0.00    +0.047 C 
ATOM     20  C   UNL     1      21.472   2.006 -20.332  0.00  0.00    +0.026 A 
ATOM     21  C   UNL     1      21.544  -0.249 -18.597  0.00  0.00    +0.010 A 
ATOM     22  C   UNL     1      20.686   1.954 -19.175  0.00  0.00    +0.002 A 
ATOM     23  C   UNL     1      20.708   0.841 -18.329  0.00  0.00    +0.001 A 
ENDBRANCH  11  13
BRANCH   1  25
ATOM     24  O   UNL     1      31.146   5.399 -21.633  0.00  0.00    -0.269 OA
ATOM     25  C   UNL     1      30.184   5.810 -22.286  0.00  0.00    +0.263 C 
ATOM     26  N   UNL     1      30.077   7.112 -22.719  0.00  0.00    -0.306 N 
ATOM     27  H   UNL     1      29.298   7.370 -23.263  0.00  0.00    +0.149 HD
BRANCH  26  28
ATOM     28  C   UNL     1      31.067   8.109 -22.405  0.00  0.00    +0.140 C 
BRANCH  28  29
ATOM     29  C   UNL     1      32.151   8.144 -23.446  0.00  0.00    -0.030 A 
ATOM     30  C   UNL     1      31.862   7.801 -24.769  0.00  0.00    +0.007 A 
ATOM     31  C   UNL     1      33.454   8.539 -23.127  0.00  0.00    +0.007 A 
ATOM     32  C   UNL     1      32.864   7.820 -25.739  0.00  0.00    +0.023 A 
ATOM     33  C   UNL     1      34.451   8.568 -24.112  0.00  0.00    +0.023 A 
ATOM     34  C   UNL     1      34.180   8.199 -25.434  0.00  0.00    +0.030 A 
BRANCH  34  35
ATOM     35  N   UNL     1      35.118   8.252 -26.453  0.00  0.00    -0.333 N 
ATOM     36  C   UNL     1      34.723   8.563 -27.832  0.00  0.00    +0.086 C 
ATOM     37  C   UNL     1      36.460   8.764 -26.115  0.00  0.00    +0.086 C 
ATOM     38  C   UNL     1      35.774   7.958 -28.796  0.00  0.00    -0.060 C 
ATOM     39  C   UNL     1      37.493   8.173 -27.104  0.00  0.00    -0.060 C 
ATOM     40  N   UNL     1      37.152   8.432 -28.523  0.00  0.00    +0.380 N 
ATOM     41  C   UNL     1      38.103   7.757 -29.404  0.00  0.00    -0.096 C 
ATOM     42  H   UNL     1      37.204   9.435 -28.704  0.00  0.00    -0.082 HD
ENDBRANCH  34  35
ENDBRANCH  28  29
ENDBRANCH  26  28
ENDBRANCH   1  25
TORSDOF 5
ENDMDL
MODEL 4
REMARK VINA RESULT:   -10.855      2.937      4.535
REMARK INTER + INTRA:         -14.911
REMARK INTER:                 -14.204
REMARK INTRA:                  -0.707
REMARK UNBOUND:                -0.883
REMARK  Name = CTX-1020752
REMARK  8 active torsions:
REMARK  status: ('A' for Active; 'I' for Inactive)
REMARK    1  A    between atoms: C_2  and  C_4
REMARK    2  A    between atoms: N_3  and  C_5
REMARK    3  A    between atoms: C_5  and  C_8
REMARK    4  A    between atoms: C_19  and  N_22
REMARK    5  A    between atoms: C_21  and  C_24
REMARK    6  A    between atoms: N_27  and  C_32
REMARK    7  A    between atoms: C_28  and  C_34
REMARK    8  A    between atoms: N_35  and  C_38
REMARK                            x       y       z     vdW  Elec       q    Type
REMARK                         _______ _______ _______ _____ _____    ______ ____
ROOT
ATOM      1  C   UNL     1      27.789   3.421 -17.763  0.00  0.00    +0.126 A 
ATOM      2  N   UNL     1      26.720   3.628 -16.946  0.00  0.00    -0.245 NA
ATOM      3  C   UNL     1      27.783   2.563 -18.852  0.00  0.00    +0.033 A 
ATOM      4  C   UNL     1      25.593   2.909 -17.220  0.00  0.00    +0.063 A 
ATOM      5  C   UNL     1      26.624   1.849 -19.122  0.00  0.00    +0.008 A 
ATOM      6  C   UNL     1      25.518   1.999 -18.285  0.00  0.00    -0.023 A 
ATOM      7  C   UNL     1      24.388   3.084 -16.298  0.00  0.00    +0.163 C 
ATOM      8  C   UNL     1      24.253   1.241 -18.600  0.00  0.00    +0.056 C 
ATOM      9  N   UNL     1      23.139   2.534 -16.856  0.00  0.00    -0.290 N 
ATOM     10  C   UNL     1      23.279   1.205 -17.430  0.00  0.00    +0.113 C 
ATOM     11  C   UNL     1      21.954   3.218 -16.600  0.00  0.00    +0.264 C 
ATOM     12  O   UNL     1      21.989   4.228 -15.895  0.00  0.00    -0.268 OA
ENDROOT
BRANCH  11  13
ATOM     13  C   UNL     1      20.663   2.767 -17.133  0.00  0.00    +0.108 A 
ATOM     14  N   UNL     1      19.764   2.184 -16.259  0.00  0.00    -0.339 N 
ATOM     15  C   UNL     1      20.197   2.143 -18.293  0.00  0.00    -0.013 A 
ATOM     16  C   UNL     1      19.801   0.837 -16.517  0.00  0.00    +0.050 A 
ATOM     17  C   UNL     1      18.879   2.917 -15.387  0.00  0.00    +0.149 C 
ATOM     18  C   UNL     1      20.087   0.773 -17.886  0.00  0.00    +0.004 A 
ATOM     19  C   UNL     1      19.392   2.733 -19.400  0.00  0.00    +0.047 C 
ATOM     20  C   UNL     1      19.559  -0.291 -15.733  0.00  0.00    +0.026 A 
ATOM     21  C   UNL     1      20.026  -0.467 -18.535  0.00  0.00    +0.010 A 
ATOM     22  C   UNL     1      19.642  -1.530 -16.380  0.00  0.00    +0.002 A 
ATOM     23  C   UNL     1      19.857  -1.619 -17.758  0.00  0.00    +0.001 A 
ENDBRANCH  11  13
BRANCH   1  25
ATOM     24  O   UNL     1      29.710   3.914 -16.463  0.00  0.00    -0.269 OA
ATOM     25  C   UNL     1      29.058   4.157 -17.480  0.00  0.00    +0.263 C 
ATOM     26  N   UNL     1      29.457   5.079 -18.421  0.00  0.00    -0.306 N 
ATOM     27  H   UNL     1      28.906   5.205 -19.227  0.00  0.00    +0.149 HD
BRANCH  26  28
ATOM     28  C   UNL     1      30.655   5.864 -18.267  0.00  0.00    +0.140 C 
BRANCH  28  29
ATOM     29  C   UNL     1      31.224   6.254 -19.603  0.00  0.00    -0.030 A 
ATOM     30  C   UNL     1      30.390   6.334 -20.721  0.00  0.00    +0.007 A 
ATOM     31  C   UNL     1      32.578   6.565 -19.754  0.00  0.00    +0.007 A 
ATOM     32  C   UNL     1      30.911   6.685 -21.967  0.00  0.00    +0.023 A 
ATOM     33  C   UNL     1      33.090   6.929 -21.007  0.00  0.00    +0.023 A 
ATOM     34  C   UNL     1      32.271   6.985 -22.140  0.00  0.00    +0.030 A 
BRANCH  34  35
ATOM     35  N   UNL     1      32.718   7.382 -23.390  0.00  0.00    -0.333 N 
ATOM     36  C   UNL     1      31.773   7.733 -24.458  0.00  0.00    +0.086 C 
ATOM     37  C   UNL     1      33.962   8.173 -23.448  0.00  0.00    +0.086 C 
ATOM     38  C   UNL     1      32.468   7.518 -25.825  0.00  0.00    -0.060 C 
ATOM     39  C   UNL     1      34.630   7.970 -24.829  0.00  0.00    -0.060 C 
ATOM     40  N   UNL     1      33.728   8.288 -25.963  0.00  0.00    +0.380 N 
ATOM     41  C   UNL     1      34.379   7.972 -27.232  0.00  0.00    -0.096 C 
ATOM     42  H   UNL     1      33.514   9.286 -25.951  0.00  0.00    -0.082 HD
ENDBRANCH  34  35
ENDBRANCH  28  29
ENDBRANCH  26  28
ENDBRANCH   1  25
TORSDOF 5
ENDMDL
MODEL 5
REMARK VINA RESULT:   -10.071      3.400      6.366
REMARK INTER + INTRA:         -13.897
REMARK INTER:                 -13.807
REMARK INTRA:                  -0.091
REMARK UNBOUND:                -0.883
REMARK  Name = CTX-1020752
REMARK  8 active torsions:
REMARK  status: ('A' for Active; 'I' for Inactive)
REMARK    1  A    between atoms: C_2  and  C_4
REMARK    2  A    between atoms: N_3  and  C_5
REMARK    3  A    between atoms: C_5  and  C_8
REMARK    4  A    between atoms: C_19  and  N_22
REMARK    5  A    between atoms: C_21  and  C_24
REMARK    6  A    between atoms: N_27  and  C_32
REMARK    7  A    between atoms: C_28  and  C_34
REMARK    8  A    between atoms: N_35  and  C_38
REMARK                            x       y       z     vdW  Elec       q    Type
REMARK                         _______ _______ _______ _____ _____    ______ ____
ROOT
ATOM      1  C   UNL     1      23.559   0.947 -21.068  0.00  0.00    +0.126 A 
ATOM      2  N   UNL     1      24.109   1.497 -19.951  0.00  0.00    -0.245 NA
ATOM      3  C   UNL     1      22.304   0.359 -21.111  0.00  0.00    +0.033 A 
ATOM      4  C   UNL     1      23.369   1.424 -18.806  0.00  0.00    +0.063 A 
ATOM      5  C   UNL     1      21.562   0.305 -19.940  0.00  0.00    +0.008 A 
ATOM      6  C   UNL     1      22.103   0.820 -18.762  0.00  0.00    -0.023 A 
ATOM      7  C   UNL     1      23.973   1.993 -17.524  0.00  0.00    +0.163 C 
ATOM      8  C   UNL     1      21.280   0.782 -17.499  0.00  0.00    +0.056 C 
ATOM      9  N   UNL     1      22.988   2.167 -16.441  0.00  0.00    -0.290 N 
ATOM     10  C   UNL     1      22.111   1.023 -16.245  0.00  0.00    +0.113 C 
ATOM     11  C   UNL     1      23.127   3.271 -15.604  0.00  0.00    +0.264 C 
ATOM     12  O   UNL     1      24.077   4.036 -15.779  0.00  0.00    -0.268 OA
ENDROOT
BRANCH  11  13
ATOM     13  C   UNL     1      22.183   3.548 -14.515  0.00  0.00    +0.108 A 
ATOM     14  N   UNL     1      21.989   2.570 -13.556  0.00  0.00    -0.339 N 
ATOM     15  C   UNL     1      20.941   4.171 -14.370  0.00  0.00    -0.013 A 
ATOM     16  C   UNL     1      20.769   2.004 -13.830  0.00  0.00    +0.050 A 
ATOM     17  C   UNL     1      22.859   2.348 -12.427  0.00  0.00    +0.149 C 
ATOM     18  C   UNL     1      20.033   3.062 -14.378  0.00  0.00    +0.004 A 
ATOM     19  C   UNL     1      20.632   5.475 -13.717  0.00  0.00    +0.047 C 
ATOM     20  C   UNL     1      20.233   0.737 -13.603  0.00  0.00    +0.026 A 
ATOM     21  C   UNL     1      18.664   2.884 -14.616  0.00  0.00    +0.010 A 
ATOM     22  C   UNL     1      18.899   0.547 -13.980  0.00  0.00    +0.002 A 
ATOM     23  C   UNL     1      18.122   1.603 -14.464  0.00  0.00    +0.001 A 
ENDBRANCH  11  13
BRANCH   1  25
ATOM     24  O   UNL     1      24.169   0.108 -23.201  0.00  0.00    -0.269 OA
ATOM     25  C   UNL     1      24.348   0.968 -22.337  0.00  0.00    +0.263 C 
ATOM     26  N   UNL     1      25.242   2.004 -22.487  0.00  0.00    -0.306 N 
ATOM     27  H   UNL     1      25.316   2.677 -21.772  0.00  0.00    +0.149 HD
BRANCH  26  28
ATOM     28  C   UNL     1      26.071   2.137 -23.657  0.00  0.00    +0.140 C 
BRANCH  28  29
ATOM     29  C   UNL     1      27.177   3.130 -23.428  0.00  0.00    -0.030 A 
ATOM     30  C   UNL     1      28.170   2.865 -22.480  0.00  0.00    +0.007 A 
ATOM     31  C   UNL     1      27.254   4.317 -24.163  0.00  0.00    +0.007 A 
ATOM     32  C   UNL     1      29.193   3.785 -22.253  0.00  0.00    +0.023 A 
ATOM     33  C   UNL     1      28.293   5.229 -23.937  0.00  0.00    +0.023 A 
ATOM     34  C   UNL     1      29.276   4.988 -22.971  0.00  0.00    +0.030 A 
BRANCH  34  35
ATOM     35  N   UNL     1      30.348   5.836 -22.739  0.00  0.00    -0.333 N 
ATOM     36  C   UNL     1      31.377   5.505 -21.745  0.00  0.00    +0.086 C 
ATOM     37  C   UNL     1      30.890   6.577 -23.894  0.00  0.00    +0.086 C 
ATOM     38  C   UNL     1      32.039   6.819 -21.262  0.00  0.00    -0.060 C 
ATOM     39  C   UNL     1      31.572   7.872 -23.393  0.00  0.00    -0.060 C 
ATOM     40  N   UNL     1      32.615   7.620 -22.369  0.00  0.00    +0.380 N 
ATOM     41  C   UNL     1      33.141   8.884 -21.859  0.00  0.00    -0.096 C 
ATOM     42  H   UNL     1      33.384   7.101 -22.794  0.00  0.00    -0.082 HD
ENDBRANCH  34  35
ENDBRANCH  28  29
ENDBRANCH  26  28
ENDBRANCH   1  25
TORSDOF 5
ENDMDL
