REMARK  Name = CTX-1020751
REMARK  6 active torsions:
REMARK  status: ('A' for Active; 'I' for Inactive)
REMARK    1  A    between atoms: C_2  and  C_5
REMARK    2  A    between atoms: C_10  and  C_11
REMARK    3  A    between atoms: C_11  and  N_12
REMARK    4  A    between atoms: C_13  and  C_15
REMARK    5  A    between atoms: C_25  and  C_27
REMARK    6  A    between atoms: C_29  and  C_32
REMARK                            x       y       z     vdW  Elec       q    Type
REMARK                         _______ _______ _______ _____ _____    ______ ____
ROOT
ATOM      1  C   UNL     1       3.351   8.757   0.529  0.00  0.00    +0.126 A 
ATOM      2  N   UNL     1       4.342   9.623   0.159  0.00  0.00    -0.245 NA
ATOM      3  C   UNL     1       2.082   8.731  -0.025  0.00  0.00    +0.033 A 
ATOM      4  C   UNL     1       4.052  10.493  -0.849  0.00  0.00    +0.063 A 
ATOM      5  C   UNL     1       1.804   9.633  -1.041  0.00  0.00    +0.008 A 
ATOM      6  C   UNL     1       2.792  10.529  -1.468  0.00  0.00    -0.023 A 
ATOM      7  C   UNL     1       5.147  11.474  -1.276  0.00  0.00    +0.163 C 
ATOM      8  C   UNL     1       2.512  11.432  -2.641  0.00  0.00    +0.056 C 
ATOM      9  N   UNL     1       4.888  12.095  -2.574  0.00  0.00    -0.289 N 
ATOM     10  C   UNL     1       3.528  12.559  -2.797  0.00  0.00    +0.113 C 
ATOM     11  C   UNL     1       5.946  12.442  -3.421  0.00  0.00    +0.283 C 
ATOM     12  O   UNL     1       7.071  12.665  -2.975  0.00  0.00    -0.267 OA
ENDROOT
BRANCH  11  13
ATOM     13  C   UNL     1       5.688  12.238  -4.856  0.00  0.00    +0.194 A 
ATOM     14  O   UNL     1       4.719  11.287  -5.115  0.00  0.00    -0.450 OA
ATOM     15  C   UNL     1       6.578  12.185  -5.933  0.00  0.00    +0.008 A 
ATOM     16  C   UNL     1       5.404  10.295  -5.723  0.00  0.00    +0.136 A 
ATOM     17  C   UNL     1       6.611  10.781  -6.207  0.00  0.00    +0.024 A 
ATOM     18  C   UNL     1       7.467  13.226  -6.503  0.00  0.00    +0.048 C 
ATOM     19  C   UNL     1       5.000   8.968  -5.760  0.00  0.00    +0.047 A 
ATOM     20  C   UNL     1       7.519   9.868  -6.766  0.00  0.00    +0.012 A 
ATOM     21  C   UNL     1       5.952   8.063  -6.229  0.00  0.00    +0.004 A 
ATOM     22  C   UNL     1       7.191   8.503  -6.714  0.00  0.00    +0.001 A 
ENDBRANCH  11  13
BRANCH   1  24
ATOM     23  N   UNL     1       4.992   7.765   2.043  0.00  0.00    -0.306 N 
ATOM     24  C   UNL     1       3.691   7.741   1.594  0.00  0.00    +0.263 C 
ATOM     25  O   UNL     1       2.843   6.947   2.002  0.00  0.00    -0.269 OA
ATOM     26  H   UNL     1       5.631   8.389   1.628  0.00  0.00    +0.149 HD
BRANCH  23  27
ATOM     27  C   UNL     1       5.443   6.899   3.104  0.00  0.00    +0.140 C 
BRANCH  27  33
ATOM     28  C   UNL     1       9.658   5.949   2.829  0.00  0.00    +0.055 A 
ATOM     29  C   UNL     1       9.147   6.593   3.963  0.00  0.00    +0.013 A 
ATOM     30  C   UNL     1       8.783   5.626   1.782  0.00  0.00    +0.013 A 
ATOM     31  C   UNL     1       7.788   6.912   4.045  0.00  0.00    +0.006 A 
ATOM     32  C   UNL     1       7.425   5.942   1.867  0.00  0.00    +0.006 A 
ATOM     33  C   UNL     1       6.914   6.597   2.997  0.00  0.00    -0.030 A 
BRANCH  28  35
ATOM     34  F   UNL     1      11.854   5.984   3.806  0.00  0.00    -0.166 F 
ATOM     35  C   UNL     1      11.122   5.598   2.724  0.00  0.00    +0.417 C 
ATOM     36  F   UNL     1      11.723   6.173   1.645  0.00  0.00    -0.166 F 
ATOM     37  F   UNL     1      11.330   4.257   2.595  0.00  0.00    -0.166 F 
ENDBRANCH  28  35
ENDBRANCH  27  33
ENDBRANCH  23  27
ENDBRANCH   1  24
TORSDOF 5
