REMARK  Name = CTX-1020750
REMARK  7 active torsions:
REMARK  status: ('A' for Active; 'I' for Inactive)
REMARK    1  A    between atoms: C_2  and  C_4
REMARK    2  A    between atoms: N_3  and  C_5
REMARK    3  A    between atoms: C_5  and  C_8
REMARK    4  A    between atoms: C_19  and  O_22
REMARK    5  A    between atoms: C_21  and  C_24
REMARK    6  A    between atoms: O_22  and  C_25
REMARK    7  A    between atoms: C_27  and  C_30
REMARK                            x       y       z     vdW  Elec       q    Type
REMARK                         _______ _______ _______ _____ _____    ______ ____
ROOT
ATOM      1  C   UNL     1       3.027  -0.732  -1.203  0.00  0.00    +0.126 A 
ATOM      2  N   UNL     1       3.995  -1.631  -0.842  0.00  0.00    -0.245 NA
ATOM      3  C   UNL     1       2.640  -0.500  -2.510  0.00  0.00    +0.033 A 
ATOM      4  C   UNL     1       4.589  -2.344  -1.857  0.00  0.00    +0.063 A 
ATOM      5  C   UNL     1       3.255  -1.216  -3.524  0.00  0.00    +0.008 A 
ATOM      6  C   UNL     1       4.246  -2.150  -3.208  0.00  0.00    -0.023 A 
ATOM      7  C   UNL     1       5.683  -3.364  -1.496  0.00  0.00    +0.163 C 
ATOM      8  C   UNL     1       4.841  -2.976  -4.318  0.00  0.00    +0.056 C 
ATOM      9  N   UNL     1       5.979  -4.298  -2.589  0.00  0.00    -0.289 N 
ATOM     10  C   UNL     1       6.111  -3.710  -3.909  0.00  0.00    +0.113 C 
ATOM     11  C   UNL     1       6.475  -5.580  -2.329  0.00  0.00    +0.283 C 
ATOM     12  O   UNL     1       7.117  -5.828  -1.310  0.00  0.00    -0.267 OA
ENDROOT
BRANCH  11  13
ATOM     13  C   UNL     1       5.938  -6.628  -3.201  0.00  0.00    +0.194 A 
ATOM     14  O   UNL     1       4.747  -6.325  -3.825  0.00  0.00    -0.450 OA
ATOM     15  C   UNL     1       6.082  -8.015  -3.226  0.00  0.00    +0.008 A 
ATOM     16  C   UNL     1       3.968  -7.419  -3.654  0.00  0.00    +0.136 A 
ATOM     17  C   UNL     1       4.727  -8.462  -3.148  0.00  0.00    +0.024 A 
ATOM     18  C   UNL     1       7.285  -8.879  -3.182  0.00  0.00    +0.048 C 
ATOM     19  C   UNL     1       2.599  -7.455  -3.864  0.00  0.00    +0.047 A 
ATOM     20  C   UNL     1       4.057  -9.614  -2.703  0.00  0.00    +0.012 A 
ATOM     21  C   UNL     1       1.947  -8.590  -3.382  0.00  0.00    +0.004 A 
ATOM     22  C   UNL     1       2.656  -9.635  -2.780  0.00  0.00    +0.001 A 
ENDBRANCH  11  13
BRANCH   1  24
ATOM     23  O   UNL     1       1.404   0.810  -0.407  0.00  0.00    -0.269 OA
ATOM     24  C   UNL     1       2.312   0.033  -0.119  0.00  0.00    +0.263 C 
ATOM     25  N   UNL     1       2.710  -0.211   1.172  0.00  0.00    -0.306 N 
ATOM     26  H   UNL     1       3.466  -0.820   1.334  0.00  0.00    +0.149 HD
BRANCH  25  27
ATOM     27  C   UNL     1       2.044   0.404   2.303  0.00  0.00    +0.140 C 
BRANCH  27  28
ATOM     28  C   UNL     1       2.973   1.298   3.079  0.00  0.00    -0.030 A 
ATOM     29  C   UNL     1       3.139   2.642   2.715  0.00  0.00    +0.009 A 
ATOM     30  C   UNL     1       3.693   0.803   4.171  0.00  0.00    +0.009 A 
ATOM     31  C   UNL     1       4.002   3.479   3.435  0.00  0.00    +0.046 A 
ATOM     32  C   UNL     1       4.553   1.640   4.887  0.00  0.00    +0.046 A 
ATOM     33  C   UNL     1       4.714   2.979   4.525  0.00  0.00    +0.120 A 
BRANCH  33  34
ATOM     34  O   UNL     1       5.584   3.682   5.312  0.00  0.00    -0.495 OA
ATOM     35  C   UNL     1       5.814   5.041   4.962  0.00  0.00    +0.277 C 
ENDBRANCH  33  34
ENDBRANCH  27  28
ENDBRANCH  25  27
ENDBRANCH   1  24
TORSDOF 5
