MODEL 1
REMARK VINA RESULT:   -12.169      0.000      0.000
REMARK INTER + INTRA:         -18.566
REMARK INTER:                 -17.504
REMARK INTRA:                  -1.062
REMARK UNBOUND:                -1.062
REMARK  Name = CTX-1020759
REMARK  9 active torsions:
REMARK  status: ('A' for Active; 'I' for Inactive)
REMARK    1  A    between atoms: C_2  and  C_4
REMARK    2  A    between atoms: N_3  and  C_5
REMARK    3  A    between atoms: C_5  and  C_8
REMARK    4  A    between atoms: C_19  and  N_22
REMARK    5  A    between atoms: C_21  and  C_24
REMARK    6  A    between atoms: N_27  and  C_32
REMARK    7  A    between atoms: C_32  and  C_36
REMARK    8  A    between atoms: N_34  and  C_38
REMARK    9  A    between atoms: C_36  and  O_40
REMARK                            x       y       z     vdW  Elec       q    Type
REMARK                         _______ _______ _______ _____ _____    ______ ____
ROOT
ATOM      1  C   UNL     1      29.138   4.963 -22.589  0.00  0.00    +0.126 A 
ATOM      2  N   UNL     1      29.004   3.799 -21.864  0.00  0.00    -0.245 NA
ATOM      3  C   UNL     1      28.224   5.359 -23.556  0.00  0.00    +0.033 A 
ATOM      4  C   UNL     1      27.894   3.010 -22.129  0.00  0.00    +0.063 A 
ATOM      5  C   UNL     1      27.132   4.545 -23.823  0.00  0.00    +0.008 A 
ATOM      6  C   UNL     1      26.963   3.344 -23.127  0.00  0.00    -0.023 A 
ATOM      7  C   UNL     1      27.675   1.700 -21.337  0.00  0.00    +0.163 C 
ATOM      8  C   UNL     1      25.756   2.486 -23.406  0.00  0.00    +0.056 C 
ATOM      9  N   UNL     1      26.337   1.015 -21.547  0.00  0.00    -0.290 N 
ATOM     10  C   UNL     1      25.888   1.040 -22.917  0.00  0.00    +0.113 C 
ATOM     11  C   UNL     1      25.620   0.533 -20.422  0.00  0.00    +0.263 C 
ATOM     12  O   UNL     1      26.127   0.823 -19.337  0.00  0.00    -0.268 OA
ENDROOT
BRANCH  11  13
ATOM     13  C   UNL     1      24.302  -0.224 -20.388  0.00  0.00    +0.106 A 
ATOM     14  N   UNL     1      22.932  -0.056 -19.952  0.00  0.00    -0.334 N 
ATOM     15  C   UNL     1      24.173  -1.288 -21.284  0.00  0.00    +0.041 A 
ATOM     16  C   UNL     1      22.090  -1.229 -20.268  0.00  0.00    +0.050 A 
ATOM     17  C   UNL     1      22.922  -1.930 -21.150  0.00  0.00    +0.001 A 
ATOM     18  C   UNL     1      20.691  -1.777 -20.051  0.00  0.00    +0.026 A 
ATOM     19  C   UNL     1      22.475  -3.109 -21.777  0.00  0.00    +0.010 A 
ATOM     20  C   UNL     1      20.206  -2.794 -20.959  0.00  0.00    +0.002 A 
ATOM     21  C   UNL     1      21.140  -3.499 -21.705  0.00  0.00    +0.001 A 
BRANCH  14  22
ATOM     22  C   UNL     1      22.397   1.291 -19.755  0.00  0.00    +0.150 C 
BRANCH  22  23
ATOM     23  C   UNL     1      22.483   1.858 -18.314  0.00  0.00    +0.177 C 
BRANCH  23  24
ATOM     24  O   UNL     1      23.786   2.377 -18.032  0.00  0.00    -0.393 OA
ATOM     25  H   UNL     1      24.441   1.924 -18.584  0.00  0.00    +0.209 HD
ENDBRANCH  23  24
ENDBRANCH  22  23
ENDBRANCH  14  22
ENDBRANCH  11  13
BRANCH   1  27
ATOM     26  O   UNL     1      31.338   5.496 -21.851  0.00  0.00    -0.269 OA
ATOM     27  C   UNL     1      30.306   5.910 -22.360  0.00  0.00    +0.263 C 
ATOM     28  N   UNL     1      30.151   7.225 -22.746  0.00  0.00    -0.306 N 
ATOM     29  H   UNL     1      29.325   7.510 -23.200  0.00  0.00    +0.149 HD
BRANCH  28  30
ATOM     30  C   UNL     1      31.211   8.192 -22.482  0.00  0.00    +0.140 C 
BRANCH  30  31
ATOM     31  C   UNL     1      32.249   8.225 -23.572  0.00  0.00    -0.030 A 
ATOM     32  C   UNL     1      33.534   8.710 -23.323  0.00  0.00    +0.007 A 
ATOM     33  C   UNL     1      31.960   7.736 -24.851  0.00  0.00    +0.007 A 
ATOM     34  C   UNL     1      34.484   8.749 -24.347  0.00  0.00    +0.023 A 
ATOM     35  C   UNL     1      32.915   7.795 -25.876  0.00  0.00    +0.023 A 
ATOM     36  C   UNL     1      34.194   8.317 -25.651  0.00  0.00    +0.030 A 
BRANCH  36  37
ATOM     37  N   UNL     1      35.183   8.362 -26.615  0.00  0.00    -0.333 N 
ATOM     38  C   UNL     1      34.897   8.786 -27.993  0.00  0.00    +0.086 C 
ATOM     39  C   UNL     1      36.566   8.661 -26.192  0.00  0.00    +0.086 C 
ATOM     40  C   UNL     1      35.915   8.106 -28.942  0.00  0.00    -0.060 C 
ATOM     41  C   UNL     1      37.552   7.988 -27.173  0.00  0.00    -0.060 C 
ATOM     42  N   UNL     1      37.321   8.405 -28.576  0.00  0.00    +0.380 N 
ATOM     43  C   UNL     1      38.246   7.724 -29.475  0.00  0.00    -0.096 C 
ATOM     44  H   UNL     1      37.487   9.408 -28.665  0.00  0.00    -0.082 HD
ENDBRANCH  36  37
ENDBRANCH  30  31
ENDBRANCH  28  30
ENDBRANCH   1  27
TORSDOF 8
ENDMDL
MODEL 2
REMARK VINA RESULT:   -10.348      2.647      3.868
REMARK INTER + INTRA:         -15.947
REMARK INTER:                 -15.173
REMARK INTRA:                  -0.774
REMARK UNBOUND:                -1.062
REMARK  Name = CTX-1020759
REMARK  9 active torsions:
REMARK  status: ('A' for Active; 'I' for Inactive)
REMARK    1  A    between atoms: C_2  and  C_4
REMARK    2  A    between atoms: N_3  and  C_5
REMARK    3  A    between atoms: C_5  and  C_8
REMARK    4  A    between atoms: C_19  and  N_22
REMARK    5  A    between atoms: C_21  and  C_24
REMARK    6  A    between atoms: N_27  and  C_32
REMARK    7  A    between atoms: C_32  and  C_36
REMARK    8  A    between atoms: N_34  and  C_38
REMARK    9  A    between atoms: C_36  and  O_40
REMARK                            x       y       z     vdW  Elec       q    Type
REMARK                         _______ _______ _______ _____ _____    ______ ____
ROOT
ATOM      1  C   UNL     1      28.650   3.580 -17.560  0.00  0.00    +0.126 A 
ATOM      2  N   UNL     1      28.017   3.237 -18.734  0.00  0.00    -0.245 NA
ATOM      3  C   UNL     1      28.166   3.220 -16.309  0.00  0.00    +0.033 A 
ATOM      4  C   UNL     1      26.850   2.494 -18.632  0.00  0.00    +0.063 A 
ATOM      5  C   UNL     1      26.985   2.497 -16.227  0.00  0.00    +0.008 A 
ATOM      6  C   UNL     1      26.296   2.141 -17.390  0.00  0.00    -0.023 A 
ATOM      7  C   UNL     1      26.100   2.061 -19.914  0.00  0.00    +0.163 C 
ATOM      8  C   UNL     1      25.031   1.329 -17.287  0.00  0.00    +0.056 C 
ATOM      9  N   UNL     1      24.958   1.082 -19.714  0.00  0.00    -0.290 N 
ATOM     10  C   UNL     1      24.159   1.362 -18.546  0.00  0.00    +0.113 C 
ATOM     11  C   UNL     1      24.842  -0.036 -20.579  0.00  0.00    +0.263 C 
ATOM     12  O   UNL     1      25.778  -0.162 -21.371  0.00  0.00    -0.268 OA
ENDROOT
BRANCH  11  13
ATOM     13  C   UNL     1      23.766  -1.110 -20.607  0.00  0.00    +0.106 A 
ATOM     14  N   UNL     1      22.412  -1.343 -20.150  0.00  0.00    -0.334 N 
ATOM     15  C   UNL     1      23.890  -2.088 -21.595  0.00  0.00    +0.041 A 
ATOM     16  C   UNL     1      21.893  -2.663 -20.567  0.00  0.00    +0.050 A 
ATOM     17  C   UNL     1      22.853  -3.043 -21.515  0.00  0.00    +0.001 A 
ATOM     18  C   UNL     1      20.690  -3.572 -20.394  0.00  0.00    +0.026 A 
ATOM     19  C   UNL     1      22.708  -4.239 -22.245  0.00  0.00    +0.010 A 
ATOM     20  C   UNL     1      20.459  -4.597 -21.389  0.00  0.00    +0.002 A 
ATOM     21  C   UNL     1      21.522  -4.967 -22.202  0.00  0.00    +0.001 A 
BRANCH  14  22
ATOM     22  C   UNL     1      21.552  -0.204 -19.828  0.00  0.00    +0.150 C 
BRANCH  22  23
ATOM     23  C   UNL     1      20.566  -0.403 -18.647  0.00  0.00    +0.177 C 
BRANCH  23  24
ATOM     24  O   UNL     1      21.194  -0.133 -17.390  0.00  0.00    -0.393 OA
ATOM     25  H   UNL     1      21.132  -0.917 -16.824  0.00  0.00    +0.209 HD
ENDBRANCH  23  24
ENDBRANCH  22  23
ENDBRANCH  14  22
ENDBRANCH  11  13
BRANCH   1  27
ATOM     26  O   UNL     1      30.808   4.139 -16.724  0.00  0.00    -0.269 OA
ATOM     27  C   UNL     1      29.948   4.374 -17.561  0.00  0.00    +0.263 C 
ATOM     28  N   UNL     1      30.104   5.346 -18.526  0.00  0.00    -0.306 N 
ATOM     29  H   UNL     1      29.412   5.472 -19.214  0.00  0.00    +0.149 HD
BRANCH  28  30
ATOM     30  C   UNL     1      31.296   6.188 -18.527  0.00  0.00    +0.140 C 
BRANCH  30  31
ATOM     31  C   UNL     1      31.736   6.567 -19.916  0.00  0.00    -0.030 A 
ATOM     32  C   UNL     1      33.088   6.587 -20.259  0.00  0.00    +0.007 A 
ATOM     33  C   UNL     1      30.794   6.874 -20.906  0.00  0.00    +0.007 A 
ATOM     34  C   UNL     1      33.484   6.956 -21.548  0.00  0.00    +0.023 A 
ATOM     35  C   UNL     1      31.202   7.259 -22.190  0.00  0.00    +0.023 A 
ATOM     36  C   UNL     1      32.557   7.323 -22.537  0.00  0.00    +0.030 A 
BRANCH  36  37
ATOM     37  N   UNL     1      33.011   7.659 -23.798  0.00  0.00    -0.333 N 
ATOM     38  C   UNL     1      32.081   7.920 -24.907  0.00  0.00    +0.086 C 
ATOM     39  C   UNL     1      34.277   8.408 -23.915  0.00  0.00    +0.086 C 
ATOM     40  C   UNL     1      32.792   7.581 -26.241  0.00  0.00    -0.060 C 
ATOM     41  C   UNL     1      34.946   8.065 -25.265  0.00  0.00    -0.060 C 
ATOM     42  N   UNL     1      34.056   8.336 -26.418  0.00  0.00    +0.380 N 
ATOM     43  C   UNL     1      34.708   7.967 -27.670  0.00  0.00    -0.096 C 
ATOM     44  H   UNL     1      33.849   9.334 -26.461  0.00  0.00    -0.082 HD
ENDBRANCH  36  37
ENDBRANCH  30  31
ENDBRANCH  28  30
ENDBRANCH   1  27
TORSDOF 8
ENDMDL
MODEL 3
REMARK VINA RESULT:   -10.035      2.997     13.931
REMARK INTER + INTRA:         -15.497
REMARK INTER:                 -14.586
REMARK INTRA:                  -0.911
REMARK UNBOUND:                -1.062
REMARK  Name = CTX-1020759
REMARK  9 active torsions:
REMARK  status: ('A' for Active; 'I' for Inactive)
REMARK    1  A    between atoms: C_2  and  C_4
REMARK    2  A    between atoms: N_3  and  C_5
REMARK    3  A    between atoms: C_5  and  C_8
REMARK    4  A    between atoms: C_19  and  N_22
REMARK    5  A    between atoms: C_21  and  C_24
REMARK    6  A    between atoms: N_27  and  C_32
REMARK    7  A    between atoms: C_32  and  C_36
REMARK    8  A    between atoms: N_34  and  C_38
REMARK    9  A    between atoms: C_36  and  O_40
REMARK                            x       y       z     vdW  Elec       q    Type
REMARK                         _______ _______ _______ _____ _____    ______ ____
ROOT
ATOM      1  C   UNL     1      24.720   0.816 -23.687  0.00  0.00    +0.126 A 
ATOM      2  N   UNL     1      25.330   1.622 -22.751  0.00  0.00    -0.245 NA
ATOM      3  C   UNL     1      24.832   1.032 -25.055  0.00  0.00    +0.033 A 
ATOM      4  C   UNL     1      26.086   2.684 -23.223  0.00  0.00    +0.063 A 
ATOM      5  C   UNL     1      25.575   2.112 -25.507  0.00  0.00    +0.008 A 
ATOM      6  C   UNL     1      26.196   2.970 -24.595  0.00  0.00    -0.023 A 
ATOM      7  C   UNL     1      26.812   3.616 -22.224  0.00  0.00    +0.163 C 
ATOM      8  C   UNL     1      27.026   4.121 -25.102  0.00  0.00    +0.056 C 
ATOM      9  N   UNL     1      27.778   4.616 -22.833  0.00  0.00    -0.290 N 
ATOM     10  C   UNL     1      27.296   5.208 -24.056  0.00  0.00    +0.113 C 
ATOM     11  C   UNL     1      29.056   4.793 -22.245  0.00  0.00    +0.263 C 
ATOM     12  O   UNL     1      29.302   4.010 -21.325  0.00  0.00    -0.268 OA
ENDROOT
BRANCH  11  13
ATOM     13  C   UNL     1      30.159   5.761 -22.640  0.00  0.00    +0.106 A 
ATOM     14  N   UNL     1      31.322   6.415 -22.078  0.00  0.00    -0.334 N 
ATOM     15  C   UNL     1      30.409   5.894 -24.008  0.00  0.00    +0.041 A 
ATOM     16  C   UNL     1      32.031   7.255 -23.066  0.00  0.00    +0.050 A 
ATOM     17  C   UNL     1      31.435   6.831 -24.260  0.00  0.00    +0.001 A 
ATOM     18  C   UNL     1      33.183   8.238 -23.177  0.00  0.00    +0.026 A 
ATOM     19  C   UNL     1      31.876   7.329 -25.502  0.00  0.00    +0.010 A 
ATOM     20  C   UNL     1      33.775   8.454 -24.479  0.00  0.00    +0.002 A 
ATOM     21  C   UNL     1      33.038   8.089 -25.598  0.00  0.00    +0.001 A 
BRANCH  14  22
ATOM     22  C   UNL     1      31.963   5.853 -20.890  0.00  0.00    +0.150 C 
BRANCH  22  23
ATOM     23  C   UNL     1      31.381   6.297 -19.523  0.00  0.00    +0.177 C 
BRANCH  23  24
ATOM     24  O   UNL     1      30.467   5.326 -19.002  0.00  0.00    -0.393 OA
ATOM     25  H   UNL     1      30.608   4.477 -19.449  0.00  0.00    +0.209 HD
ENDBRANCH  23  24
ENDBRANCH  22  23
ENDBRANCH  14  22
ENDBRANCH  11  13
BRANCH   1  27
ATOM     26  O   UNL     1      23.007  -0.803 -24.018  0.00  0.00    -0.269 OA
ATOM     27  C   UNL     1      23.885  -0.387 -23.276  0.00  0.00    +0.263 C 
ATOM     28  N   UNL     1      24.161  -0.973 -22.059  0.00  0.00    -0.306 N 
ATOM     29  H   UNL     1      24.910  -0.642 -21.512  0.00  0.00    +0.149 HD
BRANCH  28  30
ATOM     30  C   UNL     1      23.343  -2.083 -21.582  0.00  0.00    +0.140 C 
BRANCH  30  31
ATOM     31  C   UNL     1      22.378  -1.670 -20.503  0.00  0.00    -0.030 A 
ATOM     32  C   UNL     1      22.338  -0.353 -20.044  0.00  0.00    +0.007 A 
ATOM     33  C   UNL     1      21.473  -2.590 -19.961  0.00  0.00    +0.007 A 
ATOM     34  C   UNL     1      21.447   0.015 -19.031  0.00  0.00    +0.023 A 
ATOM     35  C   UNL     1      20.596  -2.215 -18.934  0.00  0.00    +0.023 A 
ATOM     36  C   UNL     1      20.573  -0.907 -18.435  0.00  0.00    +0.030 A 
BRANCH  36  37
ATOM     37  N   UNL     1      19.702  -0.477 -17.452  0.00  0.00    -0.333 N 
ATOM     38  C   UNL     1      18.605   0.454 -17.747  0.00  0.00    +0.086 C 
ATOM     39  C   UNL     1      19.403  -1.389 -16.330  0.00  0.00    +0.086 C 
ATOM     40  C   UNL     1      18.279   1.260 -16.465  0.00  0.00    -0.060 C 
ATOM     41  C   UNL     1      19.059  -0.553 -15.076  0.00  0.00    -0.060 C 
ATOM     42  N   UNL     1      17.938   0.386 -15.317  0.00  0.00    +0.380 N 
ATOM     43  C   UNL     1      17.667   1.181 -14.124  0.00  0.00    -0.096 C 
ATOM     44  H   UNL     1      17.093  -0.143 -15.534  0.00  0.00    -0.082 HD
ENDBRANCH  36  37
ENDBRANCH  30  31
ENDBRANCH  28  30
ENDBRANCH   1  27
TORSDOF 8
ENDMDL
MODEL 4
REMARK VINA RESULT:    -9.600      3.309      5.239
REMARK INTER + INTRA:         -14.872
REMARK INTER:                 -14.314
REMARK INTRA:                  -0.557
REMARK UNBOUND:                -1.062
REMARK  Name = CTX-1020759
REMARK  9 active torsions:
REMARK  status: ('A' for Active; 'I' for Inactive)
REMARK    1  A    between atoms: C_2  and  C_4
REMARK    2  A    between atoms: N_3  and  C_5
REMARK    3  A    between atoms: C_5  and  C_8
REMARK    4  A    between atoms: C_19  and  N_22
REMARK    5  A    between atoms: C_21  and  C_24
REMARK    6  A    between atoms: N_27  and  C_32
REMARK    7  A    between atoms: C_32  and  C_36
REMARK    8  A    between atoms: N_34  and  C_38
REMARK    9  A    between atoms: C_36  and  O_40
REMARK                            x       y       z     vdW  Elec       q    Type
REMARK                         _______ _______ _______ _____ _____    ______ ____
ROOT
ATOM      1  C   UNL     1      27.694   3.661 -17.219  0.00  0.00    +0.126 A 
ATOM      2  N   UNL     1      26.966   3.051 -18.218  0.00  0.00    -0.245 NA
ATOM      3  C   UNL     1      27.148   4.002 -15.989  0.00  0.00    +0.033 A 
ATOM      4  C   UNL     1      25.634   2.773 -17.952  0.00  0.00    +0.063 A 
ATOM      5  C   UNL     1      25.807   3.736 -15.750  0.00  0.00    +0.008 A 
ATOM      6  C   UNL     1      25.023   3.136 -16.739  0.00  0.00    -0.023 A 
ATOM      7  C   UNL     1      24.766   2.073 -19.024  0.00  0.00    +0.163 C 
ATOM      8  C   UNL     1      23.576   2.824 -16.455  0.00  0.00    +0.056 C 
ATOM      9  N   UNL     1      23.389   1.623 -18.571  0.00  0.00    -0.290 N 
ATOM     10  C   UNL     1      22.731   2.572 -17.708  0.00  0.00    +0.113 C 
ATOM     11  C   UNL     1      22.932   0.328 -18.922  0.00  0.00    +0.263 C 
ATOM     12  O   UNL     1      23.774  -0.369 -19.492  0.00  0.00    -0.268 OA
ENDROOT
BRANCH  11  13
ATOM     13  C   UNL     1      21.586  -0.317 -18.632  0.00  0.00    +0.106 A 
ATOM     14  N   UNL     1      20.777  -1.445 -19.045  0.00  0.00    -0.334 N 
ATOM     15  C   UNL     1      20.992   0.008 -17.409  0.00  0.00    +0.041 A 
ATOM     16  C   UNL     1      19.505  -1.534 -18.297  0.00  0.00    +0.050 A 
ATOM     17  C   UNL     1      19.741  -0.628 -17.255  0.00  0.00    +0.001 A 
ATOM     18  C   UNL     1      18.212  -2.327 -18.249  0.00  0.00    +0.026 A 
ATOM     19  C   UNL     1      18.791  -0.449 -16.229  0.00  0.00    +0.010 A 
ATOM     20  C   UNL     1      17.451  -2.320 -17.019  0.00  0.00    +0.002 A 
ATOM     21  C   UNL     1      17.700  -1.304 -16.105  0.00  0.00    +0.001 A 
BRANCH  14  22
ATOM     22  C   UNL     1      21.415  -2.591 -19.692  0.00  0.00    +0.150 C 
BRANCH  22  23
ATOM     23  C   UNL     1      21.189  -2.729 -21.220  0.00  0.00    +0.177 C 
BRANCH  23  24
ATOM     24  O   UNL     1      20.065  -3.566 -21.510  0.00  0.00    -0.393 OA
ATOM     25  H   UNL     1      19.359  -3.032 -21.906  0.00  0.00    +0.209 HD
ENDBRANCH  23  24
ENDBRANCH  22  23
ENDBRANCH  14  22
ENDBRANCH  11  13
BRANCH   1  27
ATOM     26  O   UNL     1      30.009   3.110 -17.278  0.00  0.00    -0.269 OA
ATOM     27  C   UNL     1      29.169   3.990 -17.399  0.00  0.00    +0.263 C 
ATOM     28  N   UNL     1      29.503   5.293 -17.699  0.00  0.00    -0.306 N 
ATOM     29  H   UNL     1      28.795   5.963 -17.840  0.00  0.00    +0.149 HD
BRANCH  28  30
ATOM     30  C   UNL     1      30.905   5.680 -17.809  0.00  0.00    +0.140 C 
BRANCH  30  31
ATOM     31  C   UNL     1      31.277   6.121 -19.200  0.00  0.00    -0.030 A 
ATOM     32  C   UNL     1      32.609   6.356 -19.544  0.00  0.00    +0.007 A 
ATOM     33  C   UNL     1      30.298   6.271 -20.189  0.00  0.00    +0.007 A 
ATOM     34  C   UNL     1      32.939   6.780 -20.835  0.00  0.00    +0.023 A 
ATOM     35  C   UNL     1      30.638   6.712 -21.475  0.00  0.00    +0.023 A 
ATOM     36  C   UNL     1      31.965   6.992 -21.823  0.00  0.00    +0.030 A 
BRANCH  36  37
ATOM     37  N   UNL     1      32.358   7.393 -23.086  0.00  0.00    -0.333 N 
ATOM     38  C   UNL     1      31.383   7.597 -24.167  0.00  0.00    +0.086 C 
ATOM     39  C   UNL     1      33.553   8.250 -23.213  0.00  0.00    +0.086 C 
ATOM     40  C   UNL     1      32.089   7.349 -25.524  0.00  0.00    -0.060 C 
ATOM     41  C   UNL     1      34.216   7.994 -24.585  0.00  0.00    -0.060 C 
ATOM     42  N   UNL     1      33.279   8.214 -25.712  0.00  0.00    +0.380 N 
ATOM     43  C   UNL     1      33.929   7.928 -26.986  0.00  0.00    -0.096 C 
ATOM     44  H   UNL     1      32.987   9.191 -25.726  0.00  0.00    -0.082 HD
ENDBRANCH  36  37
ENDBRANCH  30  31
ENDBRANCH  28  30
ENDBRANCH   1  27
TORSDOF 8
ENDMDL
