REMARK  Name = CTX-1020767
REMARK  5 active torsions:
REMARK  status: ('A' for Active; 'I' for Inactive)
REMARK    1  A    between atoms: C_2  and  C_4
REMARK    2  A    between atoms: N_3  and  C_5
REMARK    3  A    between atoms: C_5  and  C_8
REMARK    4  A    between atoms: C_20  and  C_22
REMARK    5  A    between atoms: C_24  and  C_27
REMARK                            x       y       z     vdW  Elec       q    Type
REMARK                         _______ _______ _______ _____ _____    ______ ____
ROOT
ATOM      1  C   UNL     1       3.012   0.993  -0.811  0.00  0.00    +0.126 A 
ATOM      2  N   UNL     1       4.019   0.608  -1.650  0.00  0.00    -0.245 NA
ATOM      3  C   UNL     1       2.541   2.300  -0.723  0.00  0.00    +0.033 A 
ATOM      4  C   UNL     1       4.554   1.574  -2.465  0.00  0.00    +0.063 A 
ATOM      5  C   UNL     1       3.099   3.265  -1.542  0.00  0.00    +0.008 A 
ATOM      6  C   UNL     1       4.118   2.913  -2.431  0.00  0.00    -0.023 A 
ATOM      7  C   UNL     1       5.680   1.167  -3.424  0.00  0.00    +0.163 C 
ATOM      8  C   UNL     1       4.641   3.954  -3.384  0.00  0.00    +0.056 C 
ATOM      9  N   UNL     1       5.926   2.162  -4.475  0.00  0.00    -0.289 N 
ATOM     10  C   UNL     1       5.952   3.551  -4.046  0.00  0.00    +0.113 C 
ATOM     11  C   UNL     1       6.321   1.769  -5.760  0.00  0.00    +0.283 C 
ATOM     12  O   UNL     1       6.905   0.702  -5.948  0.00  0.00    -0.267 OA
ENDROOT
BRANCH  11  13
ATOM     13  C   UNL     1       5.763   2.569  -6.861  0.00  0.00    +0.194 A 
ATOM     14  O   UNL     1       4.572   3.195  -6.552  0.00  0.00    -0.450 OA
ATOM     15  C   UNL     1       5.758   2.370  -8.244  0.00  0.00    +0.008 A 
ATOM     16  C   UNL     1       3.699   2.721  -7.463  0.00  0.00    +0.136 A 
ATOM     17  C   UNL     1       4.380   2.096  -8.501  0.00  0.00    +0.024 A 
ATOM     18  C   UNL     1       6.861   2.329  -9.232  0.00  0.00    +0.048 C 
ATOM     19  C   UNL     1       2.321   2.793  -7.356  0.00  0.00    +0.047 A 
ATOM     20  C   UNL     1       3.635   1.410  -9.475  0.00  0.00    +0.012 A 
ATOM     21  C   UNL     1       1.594   2.064  -8.296  0.00  0.00    +0.004 A 
ATOM     22  C   UNL     1       2.241   1.364  -9.323  0.00  0.00    +0.001 A 
ENDBRANCH  11  13
BRANCH   1  24
ATOM     23  O   UNL     1       1.358   0.297   0.733  0.00  0.00    -0.269 OA
ATOM     24  C   UNL     1       2.315  -0.031   0.038  0.00  0.00    +0.263 C 
ATOM     25  N   UNL     1       2.779  -1.334   0.014  0.00  0.00    -0.304 N 
ATOM     26  H   UNL     1       3.537  -1.588  -0.560  0.00  0.00    +0.149 HD
BRANCH  25  27
ATOM     27  C   UNL     1       2.123  -2.316   0.850  0.00  0.00    +0.161 C 
BRANCH  27  28
ATOM     28  C   UNL     1       2.715  -3.673   0.686  0.00  0.00    +0.076 A 
ATOM     29  N   UNL     1       4.043  -3.867   0.357  0.00  0.00    -0.239 NA
ATOM     30  C   UNL     1       2.095  -4.899   0.892  0.00  0.00    +0.108 A 
ATOM     31  C   UNL     1       4.217  -5.165   0.361  0.00  0.00    +0.196 A 
ATOM     32  N   UNL     1       3.059  -5.834   0.672  0.00  0.00    -0.351 N 
ATOM     33  H   UNL     1       2.947  -6.811   0.727  0.00  0.00    +0.166 HD
ENDBRANCH  27  28
ENDBRANCH  25  27
ENDBRANCH   1  24
TORSDOF 4
