MODEL 1
REMARK VINA RESULT:   -12.551      0.000      0.000
REMARK INTER + INTRA:         -16.844
REMARK INTER:                 -16.220
REMARK INTRA:                  -0.624
REMARK UNBOUND:                -0.624
REMARK  Name = CTX-1020751
REMARK  6 active torsions:
REMARK  status: ('A' for Active; 'I' for Inactive)
REMARK    1  A    between atoms: C_2  and  C_5
REMARK    2  A    between atoms: C_10  and  C_11
REMARK    3  A    between atoms: C_11  and  N_12
REMARK    4  A    between atoms: C_13  and  C_15
REMARK    5  A    between atoms: C_25  and  C_27
REMARK    6  A    between atoms: C_29  and  C_32
REMARK                            x       y       z     vdW  Elec       q    Type
REMARK                         _______ _______ _______ _____ _____    ______ ____
ROOT
ATOM      1  C   UNL     1      24.767   0.659 -22.598  0.00  0.00    +0.126 A 
ATOM      2  N   UNL     1      24.799   0.946 -21.262  0.00  0.00    -0.245 NA
ATOM      3  C   UNL     1      23.795  -0.113 -23.214  0.00  0.00    +0.033 A 
ATOM      4  C   UNL     1      23.778   0.457 -20.505  0.00  0.00    +0.063 A 
ATOM      5  C   UNL     1      22.771  -0.611 -22.422  0.00  0.00    +0.008 A 
ATOM      6  C   UNL     1      22.750  -0.329 -21.050  0.00  0.00    -0.023 A 
ATOM      7  C   UNL     1      23.797   0.764 -19.005  0.00  0.00    +0.163 C 
ATOM      8  C   UNL     1      21.579  -0.788 -20.221  0.00  0.00    +0.056 C 
ATOM      9  N   UNL     1      22.509   0.530 -18.354  0.00  0.00    -0.289 N 
ATOM     10  C   UNL     1      21.827  -0.702 -18.719  0.00  0.00    +0.113 C 
ATOM     11  C   UNL     1      22.106   1.316 -17.269  0.00  0.00    +0.283 C 
ATOM     12  O   UNL     1      22.931   1.887 -16.556  0.00  0.00    -0.267 OA
ENDROOT
BRANCH  11  13
ATOM     13  C   UNL     1      20.669   1.632 -17.229  0.00  0.00    +0.194 A 
ATOM     14  O   UNL     1      19.995   1.015 -16.192  0.00  0.00    -0.450 OA
ATOM     15  C   UNL     1      19.744   1.757 -18.270  0.00  0.00    +0.008 A 
ATOM     16  C   UNL     1      19.163   0.158 -16.821  0.00  0.00    +0.136 A 
ATOM     17  C   UNL     1      19.011   0.534 -18.149  0.00  0.00    +0.024 A 
ATOM     18  C   UNL     1      19.667   2.737 -19.380  0.00  0.00    +0.048 C 
ATOM     19  C   UNL     1      18.630  -0.986 -16.245  0.00  0.00    +0.047 A 
ATOM     20  C   UNL     1      18.277  -0.308 -18.999  0.00  0.00    +0.012 A 
ATOM     21  C   UNL     1      17.987  -1.858 -17.124  0.00  0.00    +0.004 A 
ATOM     22  C   UNL     1      17.822  -1.530 -18.476  0.00  0.00    +0.001 A 
ENDBRANCH  11  13
BRANCH   1  24
ATOM     23  N   UNL     1      25.637   2.555 -23.869  0.00  0.00    -0.306 N 
ATOM     24  C   UNL     1      25.856   1.261 -23.455  0.00  0.00    +0.263 C 
ATOM     25  O   UNL     1      26.854   0.607 -23.759  0.00  0.00    -0.269 OA
ATOM     26  H   UNL     1      24.788   2.996 -23.637  0.00  0.00    +0.149 HD
BRANCH  23  27
ATOM     27  C   UNL     1      26.619   3.281 -24.636  0.00  0.00    +0.140 C 
BRANCH  27  33
ATOM     28  C   UNL     1      25.686   3.130 -28.861  0.00  0.00    +0.055 A 
ATOM     29  C   UNL     1      26.482   2.138 -28.273  0.00  0.00    +0.013 A 
ATOM     30  C   UNL     1      25.206   4.176 -28.060  0.00  0.00    +0.013 A 
ATOM     31  C   UNL     1      26.794   2.196 -26.911  0.00  0.00    +0.006 A 
ATOM     32  C   UNL     1      25.516   4.230 -26.699  0.00  0.00    +0.006 A 
ATOM     33  C   UNL     1      26.321   3.244 -26.111  0.00  0.00    -0.030 A 
BRANCH  28  35
ATOM     34  F   UNL     1      24.014   3.266 -30.583  0.00  0.00    -0.166 F 
ATOM     35  C   UNL     1      25.340   3.084 -30.330  0.00  0.00    +0.417 C 
ATOM     36  F   UNL     1      25.669   1.896 -30.909  0.00  0.00    -0.166 F 
ATOM     37  F   UNL     1      25.990   4.042 -31.050  0.00  0.00    -0.166 F 
ENDBRANCH  28  35
ENDBRANCH  27  33
ENDBRANCH  23  27
ENDBRANCH   1  24
TORSDOF 5
ENDMDL
MODEL 2
REMARK VINA RESULT:   -11.654      1.414      2.196
REMARK INTER + INTRA:         -15.684
REMARK INTER:                 -15.034
REMARK INTRA:                  -0.650
REMARK UNBOUND:                -0.624
REMARK  Name = CTX-1020751
REMARK  6 active torsions:
REMARK  status: ('A' for Active; 'I' for Inactive)
REMARK    1  A    between atoms: C_2  and  C_5
REMARK    2  A    between atoms: C_10  and  C_11
REMARK    3  A    between atoms: C_11  and  N_12
REMARK    4  A    between atoms: C_13  and  C_15
REMARK    5  A    between atoms: C_25  and  C_27
REMARK    6  A    between atoms: C_29  and  C_32
REMARK                            x       y       z     vdW  Elec       q    Type
REMARK                         _______ _______ _______ _____ _____    ______ ____
ROOT
ATOM      1  C   UNL     1      24.698   0.587 -23.367  0.00  0.00    +0.126 A 
ATOM      2  N   UNL     1      24.677   0.721 -22.007  0.00  0.00    -0.245 NA
ATOM      3  C   UNL     1      23.799  -0.172 -24.097  0.00  0.00    +0.033 A 
ATOM      4  C   UNL     1      23.673   0.081 -21.343  0.00  0.00    +0.063 A 
ATOM      5  C   UNL     1      22.793  -0.826 -23.400  0.00  0.00    +0.008 A 
ATOM      6  C   UNL     1      22.718  -0.705 -22.007  0.00  0.00    -0.023 A 
ATOM      7  C   UNL     1      23.634   0.215 -19.818  0.00  0.00    +0.163 C 
ATOM      8  C   UNL     1      21.562  -1.334 -21.273  0.00  0.00    +0.056 C 
ATOM      9  N   UNL     1      22.350  -0.179 -19.240  0.00  0.00    -0.289 N 
ATOM     10  C   UNL     1      21.765  -1.403 -19.763  0.00  0.00    +0.113 C 
ATOM     11  C   UNL     1      21.866   0.449 -18.087  0.00  0.00    +0.283 C 
ATOM     12  O   UNL     1      22.630   0.989 -17.288  0.00  0.00    -0.267 OA
ENDROOT
BRANCH  11  13
ATOM     13  C   UNL     1      20.409   0.662 -18.059  0.00  0.00    +0.194 A 
ATOM     14  O   UNL     1      20.044   1.956 -17.738  0.00  0.00    -0.450 OA
ATOM     15  C   UNL     1      19.388  -0.159 -17.571  0.00  0.00    +0.008 A 
ATOM     16  C   UNL     1      19.432   1.824 -16.542  0.00  0.00    +0.136 A 
ATOM     17  C   UNL     1      19.048   0.504 -16.349  0.00  0.00    +0.024 A 
ATOM     18  C   UNL     1      18.926  -1.495 -18.018  0.00  0.00    +0.048 C 
ATOM     19  C   UNL     1      19.305   2.842 -15.607  0.00  0.00    +0.047 A 
ATOM     20  C   UNL     1      18.502   0.145 -15.107  0.00  0.00    +0.012 A 
ATOM     21  C   UNL     1      18.852   2.449 -14.348  0.00  0.00    +0.004 A 
ATOM     22  C   UNL     1      18.467   1.124 -14.100  0.00  0.00    +0.001 A 
ENDBRANCH  11  13
BRANCH   1  24
ATOM     23  N   UNL     1      26.224   0.760 -25.267  0.00  0.00    -0.306 N 
ATOM     24  C   UNL     1      25.763   1.355 -24.115  0.00  0.00    +0.263 C 
ATOM     25  O   UNL     1      26.181   2.431 -23.688  0.00  0.00    -0.269 OA
ATOM     26  H   UNL     1      25.885  -0.131 -25.516  0.00  0.00    +0.149 HD
BRANCH  23  27
ATOM     27  C   UNL     1      27.191   1.408 -26.119  0.00  0.00    +0.140 C 
BRANCH  27  33
ATOM     28  C   UNL     1      25.230   3.487 -29.371  0.00  0.00    +0.055 A 
ATOM     29  C   UNL     1      26.011   2.351 -29.622  0.00  0.00    +0.013 A 
ATOM     30  C   UNL     1      25.102   3.942 -28.051  0.00  0.00    +0.013 A 
ATOM     31  C   UNL     1      26.656   1.689 -28.572  0.00  0.00    +0.006 A 
ATOM     32  C   UNL     1      25.743   3.277 -27.004  0.00  0.00    +0.006 A 
ATOM     33  C   UNL     1      26.535   2.147 -27.254  0.00  0.00    -0.030 A 
BRANCH  28  35
ATOM     34  F   UNL     1      24.016   5.421 -30.122  0.00  0.00    -0.166 F 
ATOM     35  C   UNL     1      24.528   4.214 -30.492  0.00  0.00    +0.417 C 
ATOM     36  F   UNL     1      23.481   3.507 -31.002  0.00  0.00    -0.166 F 
ATOM     37  F   UNL     1      25.353   4.469 -31.547  0.00  0.00    -0.166 F 
ENDBRANCH  28  35
ENDBRANCH  27  33
ENDBRANCH  23  27
ENDBRANCH   1  24
TORSDOF 5
ENDMDL
MODEL 3
REMARK VINA RESULT:   -11.605      5.615      7.125
REMARK INTER + INTRA:         -15.621
REMARK INTER:                 -14.652
REMARK INTRA:                  -0.970
REMARK UNBOUND:                -0.624
REMARK  Name = CTX-1020751
REMARK  6 active torsions:
REMARK  status: ('A' for Active; 'I' for Inactive)
REMARK    1  A    between atoms: C_2  and  C_5
REMARK    2  A    between atoms: C_10  and  C_11
REMARK    3  A    between atoms: C_11  and  N_12
REMARK    4  A    between atoms: C_13  and  C_15
REMARK    5  A    between atoms: C_25  and  C_27
REMARK    6  A    between atoms: C_29  and  C_32
REMARK                            x       y       z     vdW  Elec       q    Type
REMARK                         _______ _______ _______ _____ _____    ______ ____
ROOT
ATOM      1  C   UNL     1      28.777   4.711 -22.801  0.00  0.00    +0.126 A 
ATOM      2  N   UNL     1      28.439   3.699 -21.948  0.00  0.00    -0.245 NA
ATOM      3  C   UNL     1      28.208   4.912 -24.048  0.00  0.00    +0.033 A 
ATOM      4  C   UNL     1      27.449   2.857 -22.356  0.00  0.00    +0.063 A 
ATOM      5  C   UNL     1      27.210   4.037 -24.449  0.00  0.00    +0.008 A 
ATOM      6  C   UNL     1      26.816   2.993 -23.602  0.00  0.00    -0.023 A 
ATOM      7  C   UNL     1      27.058   1.713 -21.416  0.00  0.00    +0.163 C 
ATOM      8  C   UNL     1      25.661   2.113 -24.004  0.00  0.00    +0.056 C 
ATOM      9  N   UNL     1      25.772   1.105 -21.754  0.00  0.00    -0.289 N 
ATOM     10  C   UNL     1      25.543   0.844 -23.166  0.00  0.00    +0.113 C 
ATOM     11  C   UNL     1      24.945   0.584 -20.753  0.00  0.00    +0.283 C 
ATOM     12  O   UNL     1      25.410   0.207 -19.677  0.00  0.00    -0.267 OA
ENDROOT
BRANCH  11  13
ATOM     13  C   UNL     1      23.503   0.788 -20.966  0.00  0.00    +0.194 A 
ATOM     14  O   UNL     1      23.044   2.010 -20.512  0.00  0.00    -0.450 OA
ATOM     15  C   UNL     1      22.436  -0.103 -20.821  0.00  0.00    +0.008 A 
ATOM     16  C   UNL     1      22.224   1.680 -19.491  0.00  0.00    +0.136 A 
ATOM     17  C   UNL     1      21.853   0.346 -19.594  0.00  0.00    +0.024 A 
ATOM     18  C   UNL     1      22.108  -1.346 -21.561  0.00  0.00    +0.048 C 
ATOM     19  C   UNL     1      21.892   2.527 -18.443  0.00  0.00    +0.047 A 
ATOM     20  C   UNL     1      21.097  -0.216 -18.553  0.00  0.00    +0.012 A 
ATOM     21  C   UNL     1      21.225   1.928 -17.374  0.00  0.00    +0.004 A 
ATOM     22  C   UNL     1      20.843   0.581 -17.424  0.00  0.00    +0.001 A 
ENDBRANCH  11  13
BRANCH   1  24
ATOM     23  N   UNL     1      30.018   6.791 -23.128  0.00  0.00    -0.306 N 
ATOM     24  C   UNL     1      29.822   5.692 -22.323  0.00  0.00    +0.263 C 
ATOM     25  O   UNL     1      30.451   5.486 -21.284  0.00  0.00    -0.269 OA
ATOM     26  H   UNL     1      29.520   6.859 -23.975  0.00  0.00    +0.149 HD
BRANCH  23  27
ATOM     27  C   UNL     1      30.934   7.843 -22.764  0.00  0.00    +0.140 C 
BRANCH  27  33
ATOM     28  C   UNL     1      34.166   8.168 -25.627  0.00  0.00    +0.055 A 
ATOM     29  C   UNL     1      34.389   8.433 -24.270  0.00  0.00    +0.013 A 
ATOM     30  C   UNL     1      32.877   7.804 -26.043  0.00  0.00    +0.013 A 
ATOM     31  C   UNL     1      33.341   8.342 -23.348  0.00  0.00    +0.006 A 
ATOM     32  C   UNL     1      31.832   7.709 -25.120  0.00  0.00    +0.006 A 
ATOM     33  C   UNL     1      32.052   7.986 -23.763  0.00  0.00    -0.030 A 
BRANCH  28  35
ATOM     34  F   UNL     1      35.353   9.470 -27.262  0.00  0.00    -0.166 F 
ATOM     35  C   UNL     1      35.285   8.263 -26.635  0.00  0.00    +0.417 C 
ATOM     36  F   UNL     1      35.176   7.335 -27.627  0.00  0.00    -0.166 F 
ATOM     37  F   UNL     1      36.511   8.066 -26.075  0.00  0.00    -0.166 F 
ENDBRANCH  28  35
ENDBRANCH  27  33
ENDBRANCH  23  27
ENDBRANCH   1  24
TORSDOF 5
ENDMDL
MODEL 4
REMARK VINA RESULT:   -11.396      4.124      5.247
REMARK INTER + INTRA:         -15.351
REMARK INTER:                 -14.498
REMARK INTRA:                  -0.852
REMARK UNBOUND:                -0.624
REMARK  Name = CTX-1020751
REMARK  6 active torsions:
REMARK  status: ('A' for Active; 'I' for Inactive)
REMARK    1  A    between atoms: C_2  and  C_5
REMARK    2  A    between atoms: C_10  and  C_11
REMARK    3  A    between atoms: C_11  and  N_12
REMARK    4  A    between atoms: C_13  and  C_15
REMARK    5  A    between atoms: C_25  and  C_27
REMARK    6  A    between atoms: C_29  and  C_32
REMARK                            x       y       z     vdW  Elec       q    Type
REMARK                         _______ _______ _______ _____ _____    ______ ____
ROOT
ATOM      1  C   UNL     1      24.591   0.948 -23.599  0.00  0.00    +0.126 A 
ATOM      2  N   UNL     1      24.600   1.158 -22.248  0.00  0.00    -0.245 NA
ATOM      3  C   UNL     1      23.851  -0.034 -24.236  0.00  0.00    +0.033 A 
ATOM      4  C   UNL     1      23.794   0.357 -21.496  0.00  0.00    +0.063 A 
ATOM      5  C   UNL     1      23.047  -0.847 -23.451  0.00  0.00    +0.008 A 
ATOM      6  C   UNL     1      23.008  -0.659 -22.064  0.00  0.00    -0.023 A 
ATOM      7  C   UNL     1      23.792   0.574 -19.981  0.00  0.00    +0.163 C 
ATOM      8  C   UNL     1      22.053  -1.478 -21.235  0.00  0.00    +0.056 C 
ATOM      9  N   UNL     1      22.654  -0.054 -19.311  0.00  0.00    -0.289 N 
ATOM     10  C   UNL     1      22.333  -1.407 -19.737  0.00  0.00    +0.113 C 
ATOM     11  C   UNL     1      22.094   0.524 -18.167  0.00  0.00    +0.283 C 
ATOM     12  O   UNL     1      22.754   1.266 -17.441  0.00  0.00    -0.267 OA
ENDROOT
BRANCH  11  13
ATOM     13  C   UNL     1      20.629   0.414 -18.067  0.00  0.00    +0.194 A 
ATOM     14  O   UNL     1      19.986   1.634 -17.985  0.00  0.00    -0.450 OA
ATOM     15  C   UNL     1      19.840  -0.487 -17.345  0.00  0.00    +0.008 A 
ATOM     16  C   UNL     1      19.458   1.631 -16.743  0.00  0.00    +0.136 A 
ATOM     17  C   UNL     1      19.395   0.331 -16.259  0.00  0.00    +0.024 A 
ATOM     18  C   UNL     1      19.685  -1.956 -17.477  0.00  0.00    +0.048 C 
ATOM     19  C   UNL     1      19.129   2.772 -16.025  0.00  0.00    +0.047 A 
ATOM     20  C   UNL     1      18.985   0.136 -14.930  0.00  0.00    +0.012 A 
ATOM     21  C   UNL     1      18.819   2.567 -14.680  0.00  0.00    +0.004 A 
ATOM     22  C   UNL     1      18.757   1.275 -14.141  0.00  0.00    +0.001 A 
ENDBRANCH  11  13
BRANCH   1  24
ATOM     23  N   UNL     1      25.890   3.007 -23.801  0.00  0.00    -0.306 N 
ATOM     24  C   UNL     1      25.425   1.882 -24.444  0.00  0.00    +0.263 C 
ATOM     25  O   UNL     1      25.643   1.634 -25.630  0.00  0.00    -0.269 OA
ATOM     26  H   UNL     1      25.626   3.169 -22.866  0.00  0.00    +0.149 HD
BRANCH  23  27
ATOM     27  C   UNL     1      26.754   3.953 -24.462  0.00  0.00    +0.140 C 
BRANCH  27  33
ATOM     28  C   UNL     1      29.940   5.261 -21.839  0.00  0.00    +0.055 A 
ATOM     29  C   UNL     1      29.326   6.164 -22.716  0.00  0.00    +0.013 A 
ATOM     30  C   UNL     1      29.511   3.926 -21.831  0.00  0.00    +0.013 A 
ATOM     31  C   UNL     1      28.306   5.738 -23.573  0.00  0.00    +0.006 A 
ATOM     32  C   UNL     1      28.490   3.503 -22.686  0.00  0.00    +0.006 A 
ATOM     33  C   UNL     1      27.882   4.403 -23.573  0.00  0.00    -0.030 A 
BRANCH  28  35
ATOM     34  F   UNL     1      32.287   5.343 -21.325  0.00  0.00    -0.166 F 
ATOM     35  C   UNL     1      31.042   5.704 -20.907  0.00  0.00    +0.417 C 
ATOM     36  F   UNL     1      30.907   5.190 -19.653  0.00  0.00    -0.166 F 
ATOM     37  F   UNL     1      31.081   7.058 -20.752  0.00  0.00    -0.166 F 
ENDBRANCH  28  35
ENDBRANCH  27  33
ENDBRANCH  23  27
ENDBRANCH   1  24
TORSDOF 5
ENDMDL
MODEL 5
REMARK VINA RESULT:   -11.170      6.109     10.657
REMARK INTER + INTRA:         -15.059
REMARK INTER:                 -14.213
REMARK INTRA:                  -0.846
REMARK UNBOUND:                -0.624
REMARK  Name = CTX-1020751
REMARK  6 active torsions:
REMARK  status: ('A' for Active; 'I' for Inactive)
REMARK    1  A    between atoms: C_2  and  C_5
REMARK    2  A    between atoms: C_10  and  C_11
REMARK    3  A    between atoms: C_11  and  N_12
REMARK    4  A    between atoms: C_13  and  C_15
REMARK    5  A    between atoms: C_25  and  C_27
REMARK    6  A    between atoms: C_29  and  C_32
REMARK                            x       y       z     vdW  Elec       q    Type
REMARK                         _______ _______ _______ _____ _____    ______ ____
ROOT
ATOM      1  C   UNL     1      23.773   2.097 -17.740  0.00  0.00    +0.126 A 
ATOM      2  N   UNL     1      24.961   1.973 -18.404  0.00  0.00    -0.245 NA
ATOM      3  C   UNL     1      23.613   2.753 -16.530  0.00  0.00    +0.033 A 
ATOM      4  C   UNL     1      26.047   2.569 -17.836  0.00  0.00    +0.063 A 
ATOM      5  C   UNL     1      24.733   3.342 -15.964  0.00  0.00    +0.008 A 
ATOM      6  C   UNL     1      25.970   3.257 -16.614  0.00  0.00    -0.023 A 
ATOM      7  C   UNL     1      27.389   2.437 -18.561  0.00  0.00    +0.163 C 
ATOM      8  C   UNL     1      27.156   3.989 -16.042  0.00  0.00    +0.056 C 
ATOM      9  N   UNL     1      28.391   3.394 -18.094  0.00  0.00    -0.289 N 
ATOM     10  C   UNL     1      28.487   3.561 -16.653  0.00  0.00    +0.113 C 
ATOM     11  C   UNL     1      29.352   3.904 -18.973  0.00  0.00    +0.283 C 
ATOM     12  O   UNL     1      29.685   3.283 -19.982  0.00  0.00    -0.267 OA
ENDROOT
BRANCH  11  13
ATOM     13  C   UNL     1      29.702   5.318 -18.761  0.00  0.00    +0.194 A 
ATOM     14  O   UNL     1      29.392   6.133 -19.833  0.00  0.00    -0.450 OA
ATOM     15  C   UNL     1      30.828   5.887 -18.157  0.00  0.00    +0.008 A 
ATOM     16  C   UNL     1      30.599   6.537 -20.283  0.00  0.00    +0.136 A 
ATOM     17  C   UNL     1      31.558   6.352 -19.296  0.00  0.00    +0.024 A 
ATOM     18  C   UNL     1      31.308   5.824 -16.755  0.00  0.00    +0.048 C 
ATOM     19  C   UNL     1      30.852   6.971 -21.577  0.00  0.00    +0.047 A 
ATOM     20  C   UNL     1      32.901   6.601 -19.620  0.00  0.00    +0.012 A 
ATOM     21  C   UNL     1      32.198   7.120 -21.908  0.00  0.00    +0.004 A 
ATOM     22  C   UNL     1      33.204   6.930 -20.952  0.00  0.00    +0.001 A 
ENDBRANCH  11  13
BRANCH   1  24
ATOM     23  N   UNL     1      22.036   0.380 -17.796  0.00  0.00    -0.306 N 
ATOM     24  C   UNL     1      22.552   1.503 -18.402  0.00  0.00    +0.263 C 
ATOM     25  O   UNL     1      22.082   2.003 -19.424  0.00  0.00    -0.269 OA
ATOM     26  H   UNL     1      22.500   0.001 -17.014  0.00  0.00    +0.149 HD
BRANCH  23  27
ATOM     27  C   UNL     1      20.835  -0.256 -18.277  0.00  0.00    +0.140 C 
BRANCH  27  33
ATOM     28  C   UNL     1      21.628  -3.730 -20.736  0.00  0.00    +0.055 A 
ATOM     29  C   UNL     1      21.039  -3.873 -19.473  0.00  0.00    +0.013 A 
ATOM     30  C   UNL     1      21.963  -2.445 -21.186  0.00  0.00    +0.013 A 
ATOM     31  C   UNL     1      20.796  -2.751 -18.674  0.00  0.00    +0.006 A 
ATOM     32  C   UNL     1      21.717  -1.326 -20.387  0.00  0.00    +0.006 A 
ATOM     33  C   UNL     1      21.138  -1.468 -19.118  0.00  0.00    -0.030 A 
BRANCH  28  35
ATOM     34  F   UNL     1      20.861  -5.245 -22.438  0.00  0.00    -0.166 F 
ATOM     35  C   UNL     1      21.897  -4.930 -21.611  0.00  0.00    +0.417 C 
ATOM     36  F   UNL     1      22.154  -6.057 -20.891  0.00  0.00    -0.166 F 
ATOM     37  F   UNL     1      22.978  -4.753 -22.423  0.00  0.00    -0.166 F 
ENDBRANCH  28  35
ENDBRANCH  27  33
ENDBRANCH  23  27
ENDBRANCH   1  24
TORSDOF 5
ENDMDL
