REMARK  Name = CTX-1020754
REMARK  5 active torsions:
REMARK  status: ('A' for Active; 'I' for Inactive)
REMARK    1  A    between atoms: C_2  and  C_4
REMARK    2  A    between atoms: N_3  and  C_5
REMARK    3  A    between atoms: C_5  and  C_8
REMARK    4  A    between atoms: C_20  and  C_22
REMARK    5  A    between atoms: C_24  and  C_27
REMARK                            x       y       z     vdW  Elec       q    Type
REMARK                         _______ _______ _______ _____ _____    ______ ____
ROOT
ATOM      1  C   UNL     1       2.975   1.230  -0.364  0.00  0.00    +0.126 A 
ATOM      2  N   UNL     1       4.030   1.113  -1.226  0.00  0.00    -0.245 NA
ATOM      3  C   UNL     1       2.491   2.446   0.105  0.00  0.00    +0.033 A 
ATOM      4  C   UNL     1       4.609   2.277  -1.659  0.00  0.00    +0.063 A 
ATOM      5  C   UNL     1       3.115   3.612  -0.312  0.00  0.00    +0.008 A 
ATOM      6  C   UNL     1       4.189   3.539  -1.202  0.00  0.00    -0.023 A 
ATOM      7  C   UNL     1       5.744   2.179  -2.683  0.00  0.00    +0.163 C 
ATOM      8  C   UNL     1       4.790   4.820  -1.725  0.00  0.00    +0.056 C 
ATOM      9  N   UNL     1       6.027   3.450  -3.360  0.00  0.00    -0.289 N 
ATOM     10  C   UNL     1       6.097   4.611  -2.484  0.00  0.00    +0.113 C 
ATOM     11  C   UNL     1       6.498   3.464  -4.684  0.00  0.00    +0.283 C 
ATOM     12  O   UNL     1       6.916   2.429  -5.211  0.00  0.00    -0.267 OA
ENDROOT
BRANCH  11  13
ATOM     13  C   UNL     1       6.254   4.703  -5.461  0.00  0.00    +0.194 A 
ATOM     14  O   UNL     1       5.099   5.354  -5.044  0.00  0.00    -0.450 OA
ATOM     15  C   UNL     1       6.251   4.888  -6.851  0.00  0.00    +0.008 A 
ATOM     16  C   UNL     1       4.208   5.081  -6.031  0.00  0.00    +0.136 A 
ATOM     17  C   UNL     1       4.874   4.683  -7.176  0.00  0.00    +0.024 A 
ATOM     18  C   UNL     1       7.270   5.390  -7.805  0.00  0.00    +0.048 C 
ATOM     19  C   UNL     1       2.829   5.155  -5.894  0.00  0.00    +0.047 A 
ATOM     20  C   UNL     1       4.134   4.379  -8.316  0.00  0.00    +0.012 A 
ATOM     21  C   UNL     1       2.098   4.762  -7.017  0.00  0.00    +0.004 A 
ATOM     22  C   UNL     1       2.734   4.374  -8.201  0.00  0.00    +0.001 A 
ENDBRANCH  11  13
BRANCH   1  24
ATOM     23  O   UNL     1       1.307   0.069   0.867  0.00  0.00    -0.269 OA
ATOM     24  C   UNL     1       2.277  -0.011   0.115  0.00  0.00    +0.263 C 
ATOM     25  N   UNL     1       2.771  -1.226  -0.307  0.00  0.00    -0.303 N 
ATOM     26  H   UNL     1       3.542  -1.266  -0.918  0.00  0.00    +0.150 HD
BRANCH  25  27
ATOM     27  C   UNL     1       2.142  -2.440   0.159  0.00  0.00    +0.180 C 
BRANCH  27  28
ATOM     28  C   UNL     1       2.829  -3.635  -0.361  0.00  0.00    +0.142 A 
ATOM     29  O   UNL     1       2.885  -3.805  -1.720  0.00  0.00    -0.446 OA
ATOM     30  C   UNL     1       3.421  -4.735   0.215  0.00  0.00    +0.157 A 
ATOM     31  C   UNL     1       3.515  -5.003  -1.871  0.00  0.00    +0.308 A 
ATOM     32  N   UNL     1       3.861  -5.599  -0.753  0.00  0.00    -0.224 NA
ENDBRANCH  27  28
ENDBRANCH  25  27
ENDBRANCH   1  24
TORSDOF 4
