MODEL 1
REMARK VINA RESULT:   -11.772      0.000      0.000
REMARK INTER + INTRA:         -15.107
REMARK INTER:                 -14.525
REMARK INTRA:                  -0.582
REMARK UNBOUND:                -0.582
REMARK  Name = CTX-1020753
REMARK  7 active torsions:
REMARK  status: ('A' for Active; 'I' for Inactive)
REMARK    1  A    between atoms: C_3  and  C_6
REMARK    2  A    between atoms: N_5  and  C_9
REMARK    3  A    between atoms: C_21  and  C_23
REMARK    4  A    between atoms: N_26  and  C_27
REMARK    5  A    between atoms: C_27  and  C_28
REMARK    6  A    between atoms: C_33  and  N_34
REMARK    7  A    between atoms: N_39  and  C_40
REMARK                            x       y       z     vdW  Elec       q    Type
REMARK                         _______ _______ _______ _____ _____    ______ ____
ROOT
ATOM      1  C   UNL     1      26.224   3.028 -23.356  0.00  0.00    +0.265 C 
ATOM      2  O   UNL     1      25.680   3.656 -24.274  0.00  0.00    -0.268 OA
ATOM      3  N   UNL     1      27.632   3.534 -23.057  0.00  0.00    -0.290 N 
ATOM      4  C   UNL     1      28.474   4.691 -23.724  0.00  0.00    +0.163 C 
ATOM      5  C   UNL     1      28.155   3.065 -21.862  0.00  0.00    +0.113 C 
ATOM      6  C   UNL     1      29.815   5.248 -22.921  0.00  0.00    +0.063 A 
ATOM      7  C   UNL     1      29.503   3.355 -21.270  0.00  0.00    +0.056 C 
ATOM      8  N   UNL     1      30.633   6.323 -23.350  0.00  0.00    -0.245 NA
ATOM      9  C   UNL     1      30.184   4.572 -21.758  0.00  0.00    -0.023 A 
ATOM     10  C   UNL     1      31.796   6.639 -22.598  0.00  0.00    +0.126 A 
ATOM     11  C   UNL     1      31.321   4.936 -21.021  0.00  0.00    +0.008 A 
ATOM     12  C   UNL     1      32.155   5.945 -21.452  0.00  0.00    +0.033 A 
ENDROOT
BRANCH   1  15
ATOM     13 CL   UNL     1      24.499   0.818 -25.226  0.00  0.00    -0.081 Cl
ATOM     14  C   UNL     1      24.593   0.818 -23.506  0.00  0.00    +0.079 A 
ATOM     15  C   UNL     1      25.332   1.744 -22.688  0.00  0.00    +0.124 A 
ATOM     16  C   UNL     1      23.906  -0.245 -22.763  0.00  0.00    +0.019 A 
ATOM     17  N   UNL     1      24.928   1.227 -21.376  0.00  0.00    -0.338 N 
ATOM     18  C   UNL     1      24.114   0.017 -21.413  0.00  0.00    +0.051 A 
ATOM     19  C   UNL     1      23.113  -1.427 -23.096  0.00  0.00    +0.011 A 
ATOM     20  C   UNL     1      25.193   1.800 -20.076  0.00  0.00    +0.149 C 
ATOM     21  C   UNL     1      23.499  -0.904 -20.433  0.00  0.00    +0.026 A 
ATOM     22  C   UNL     1      22.561  -2.328 -22.130  0.00  0.00    +0.001 A 
ATOM     23  C   UNL     1      22.751  -2.057 -20.795  0.00  0.00    +0.002 A 
ENDBRANCH   1  15
BRANCH  10  24
ATOM     24  C   UNL     1      32.810   7.835 -22.915  0.00  0.00    +0.263 C 
ATOM     25  O   UNL     1      33.217   8.594 -22.031  0.00  0.00    -0.269 OA
ATOM     26  N   UNL     1      33.203   8.016 -24.235  0.00  0.00    -0.306 N 
ATOM     27  H   UNL     1      32.898   7.384 -24.926  0.00  0.00    +0.149 HD
BRANCH  26  28
ATOM     28  C   UNL     1      34.068   9.137 -24.610  0.00  0.00    +0.140 C 
BRANCH  28  29
ATOM     29  C   UNL     1      35.067   8.778 -25.682  0.00  0.00    -0.030 A 
ATOM     30  C   UNL     1      36.393   8.424 -25.378  0.00  0.00    +0.007 A 
ATOM     31  C   UNL     1      34.692   8.825 -27.029  0.00  0.00    +0.007 A 
ATOM     32  C   UNL     1      37.321   8.303 -26.392  0.00  0.00    +0.023 A 
ATOM     33  C   UNL     1      35.616   8.569 -28.015  0.00  0.00    +0.023 A 
ATOM     34  C   UNL     1      36.928   8.345 -27.724  0.00  0.00    +0.030 A 
BRANCH  34  35
ATOM     35  N   UNL     1      37.900   8.244 -28.762  0.00  0.00    -0.333 N 
ATOM     36  C   UNL     1      39.011   7.284 -28.664  0.00  0.00    +0.086 C 
ATOM     37  C   UNL     1      37.679   8.804 -30.082  0.00  0.00    +0.086 C 
ATOM     38  C   UNL     1      40.283   7.951 -29.209  0.00  0.00    -0.060 C 
ATOM     39  C   UNL     1      38.982   9.436 -30.594  0.00  0.00    -0.060 C 
ATOM     40  N   UNL     1      40.073   8.452 -30.583  0.00  0.00    +0.380 N 
ATOM     41  C   UNL     1      41.309   9.026 -31.104  0.00  0.00    -0.096 C 
ATOM     42  H   UNL     1      39.807   7.677 -31.189  0.00  0.00    -0.082 HD
ENDBRANCH  34  35
ENDBRANCH  28  29
ENDBRANCH  26  28
ENDBRANCH  10  24
TORSDOF 5
ENDMDL
MODEL 2
REMARK VINA RESULT:   -10.961      2.223      3.391
REMARK INTER + INTRA:         -14.107
REMARK INTER:                 -13.286
REMARK INTRA:                  -0.821
REMARK UNBOUND:                -0.582
REMARK  Name = CTX-1020753
REMARK  7 active torsions:
REMARK  status: ('A' for Active; 'I' for Inactive)
REMARK    1  A    between atoms: C_3  and  C_6
REMARK    2  A    between atoms: N_5  and  C_9
REMARK    3  A    between atoms: C_21  and  C_23
REMARK    4  A    between atoms: N_26  and  C_27
REMARK    5  A    between atoms: C_27  and  C_28
REMARK    6  A    between atoms: C_33  and  N_34
REMARK    7  A    between atoms: N_39  and  C_40
REMARK                            x       y       z     vdW  Elec       q    Type
REMARK                         _______ _______ _______ _____ _____    ______ ____
ROOT
ATOM      1  C   UNL     1      25.664   0.803 -19.835  0.00  0.00    +0.265 C 
ATOM      2  O   UNL     1      26.263   0.556 -18.780  0.00  0.00    -0.268 OA
ATOM      3  N   UNL     1      26.311   1.939 -20.621  0.00  0.00    -0.290 N 
ATOM      4  C   UNL     1      27.580   2.821 -20.300  0.00  0.00    +0.163 C 
ATOM      5  C   UNL     1      25.856   2.049 -21.925  0.00  0.00    +0.113 C 
ATOM      6  C   UNL     1      28.251   3.708 -21.533  0.00  0.00    +0.063 A 
ATOM      7  C   UNL     1      26.270   3.050 -22.964  0.00  0.00    +0.056 C 
ATOM      8  N   UNL     1      29.426   4.493 -21.425  0.00  0.00    -0.245 NA
ATOM      9  C   UNL     1      27.573   3.712 -22.752  0.00  0.00    -0.023 A 
ATOM     10  C   UNL     1      29.839   5.261 -22.547  0.00  0.00    +0.126 A 
ATOM     11  C   UNL     1      28.032   4.456 -23.849  0.00  0.00    +0.008 A 
ATOM     12  C   UNL     1      29.144   5.264 -23.746  0.00  0.00    +0.033 A 
ENDROOT
BRANCH   1  15
ATOM     13 CL   UNL     1      22.946   0.889 -17.845  0.00  0.00    -0.081 Cl
ATOM     14  C   UNL     1      23.116  -0.067 -19.267  0.00  0.00    +0.079 A 
ATOM     15  C   UNL     1      24.262  -0.110 -20.138  0.00  0.00    +0.124 A 
ATOM     16  C   UNL     1      21.986  -0.897 -19.699  0.00  0.00    +0.019 A 
ATOM     17  N   UNL     1      23.777  -1.138 -21.065  0.00  0.00    -0.338 N 
ATOM     18  C   UNL     1      22.406  -1.580 -20.836  0.00  0.00    +0.051 A 
ATOM     19  C   UNL     1      20.621  -1.148 -19.240  0.00  0.00    +0.011 A 
ATOM     20  C   UNL     1      24.507  -1.792 -22.128  0.00  0.00    +0.149 C 
ATOM     21  C   UNL     1      21.450  -2.515 -21.466  0.00  0.00    +0.026 A 
ATOM     22  C   UNL     1      19.699  -2.029 -19.890  0.00  0.00    +0.001 A 
ATOM     23  C   UNL     1      20.122  -2.718 -21.002  0.00  0.00    +0.002 A 
ENDBRANCH   1  15
BRANCH  10  24
ATOM     24  C   UNL     1      31.152   6.173 -22.614  0.00  0.00    +0.263 C 
ATOM     25  O   UNL     1      32.237   5.783 -22.172  0.00  0.00    -0.269 OA
ATOM     26  N   UNL     1      31.030   7.442 -23.163  0.00  0.00    -0.306 N 
ATOM     27  H   UNL     1      30.168   7.729 -23.541  0.00  0.00    +0.149 HD
BRANCH  26  28
ATOM     28  C   UNL     1      32.173   8.359 -23.186  0.00  0.00    +0.140 C 
BRANCH  28  29
ATOM     29  C   UNL     1      33.116   8.096 -24.334  0.00  0.00    -0.030 A 
ATOM     30  C   UNL     1      34.511   8.073 -24.164  0.00  0.00    +0.007 A 
ATOM     31  C   UNL     1      32.609   7.900 -25.623  0.00  0.00    +0.007 A 
ATOM     32  C   UNL     1      35.338   8.033 -25.268  0.00  0.00    +0.023 A 
ATOM     33  C   UNL     1      33.465   7.731 -26.687  0.00  0.00    +0.023 A 
ATOM     34  C   UNL     1      34.815   7.830 -26.539  0.00  0.00    +0.030 A 
BRANCH  34  35
ATOM     35  N   UNL     1      35.677   7.816 -27.674  0.00  0.00    -0.333 N 
ATOM     36  C   UNL     1      36.872   6.957 -27.704  0.00  0.00    +0.086 C 
ATOM     37  C   UNL     1      35.271   8.357 -28.958  0.00  0.00    +0.086 C 
ATOM     38  C   UNL     1      38.016   7.733 -28.373  0.00  0.00    -0.060 C 
ATOM     39  C   UNL     1      36.453   9.101 -29.597  0.00  0.00    -0.060 C 
ATOM     40  N   UNL     1      37.620   8.216 -29.711  0.00  0.00    +0.380 N 
ATOM     41  C   UNL     1      38.739   8.896 -30.353  0.00  0.00    -0.096 C 
ATOM     42  H   UNL     1      37.360   7.421 -30.294  0.00  0.00    -0.082 HD
ENDBRANCH  34  35
ENDBRANCH  28  29
ENDBRANCH  26  28
ENDBRANCH  10  24
TORSDOF 5
ENDMDL
MODEL 3
REMARK VINA RESULT:   -10.923      4.056     15.199
REMARK INTER + INTRA:         -14.060
REMARK INTER:                 -13.046
REMARK INTRA:                  -1.013
REMARK UNBOUND:                -0.582
REMARK  Name = CTX-1020753
REMARK  7 active torsions:
REMARK  status: ('A' for Active; 'I' for Inactive)
REMARK    1  A    between atoms: C_3  and  C_6
REMARK    2  A    between atoms: N_5  and  C_9
REMARK    3  A    between atoms: C_21  and  C_23
REMARK    4  A    between atoms: N_26  and  C_27
REMARK    5  A    between atoms: C_27  and  C_28
REMARK    6  A    between atoms: C_33  and  N_34
REMARK    7  A    between atoms: N_39  and  C_40
REMARK                            x       y       z     vdW  Elec       q    Type
REMARK                         _______ _______ _______ _____ _____    ______ ____
ROOT
ATOM      1  C   UNL     1      39.073  11.252 -29.503  0.00  0.00    +0.265 C 
ATOM      2  O   UNL     1      39.559  12.126 -28.773  0.00  0.00    -0.268 OA
ATOM      3  N   UNL     1      38.122  10.326 -28.750  0.00  0.00    -0.290 N 
ATOM      4  C   UNL     1      37.687  10.310 -27.233  0.00  0.00    +0.163 C 
ATOM      5  C   UNL     1      37.342   9.532 -29.575  0.00  0.00    +0.113 C 
ATOM      6  C   UNL     1      36.348   9.424 -26.810  0.00  0.00    +0.063 A 
ATOM      7  C   UNL     1      36.316   8.513 -29.171  0.00  0.00    +0.056 C 
ATOM      8  N   UNL     1      35.790   9.362 -25.509  0.00  0.00    -0.245 NA
ATOM      9  C   UNL     1      35.760   8.648 -27.810  0.00  0.00    -0.023 A 
ATOM     10  C   UNL     1      34.685   8.499 -25.280  0.00  0.00    +0.126 A 
ATOM     11  C   UNL     1      34.647   7.834 -27.553  0.00  0.00    +0.008 A 
ATOM     12  C   UNL     1      34.124   7.723 -26.283  0.00  0.00    +0.033 A 
ENDROOT
BRANCH   1  15
ATOM     13 CL   UNL     1      37.115  12.188 -32.081  0.00  0.00    -0.081 Cl
ATOM     14  C   UNL     1      38.740  11.633 -32.207  0.00  0.00    +0.079 A 
ATOM     15  C   UNL     1      39.598  11.240 -31.120  0.00  0.00    +0.124 A 
ATOM     16  C   UNL     1      39.369  11.588 -33.533  0.00  0.00    +0.019 A 
ATOM     17  N   UNL     1      40.761  10.829 -31.914  0.00  0.00    -0.338 N 
ATOM     18  C   UNL     1      40.648  11.074 -33.348  0.00  0.00    +0.051 A 
ATOM     19  C   UNL     1      38.984  11.937 -34.899  0.00  0.00    +0.011 A 
ATOM     20  C   UNL     1      41.963  10.170 -31.454  0.00  0.00    +0.149 C 
ATOM     21  C   UNL     1      41.497  10.901 -34.545  0.00  0.00    +0.026 A 
ATOM     22  C   UNL     1      39.838  11.798 -36.039  0.00  0.00    +0.001 A 
ATOM     23  C   UNL     1      41.096  11.272 -35.857  0.00  0.00    +0.002 A 
ENDBRANCH   1  15
BRANCH  10  24
ATOM     24  C   UNL     1      33.912   8.330 -23.890  0.00  0.00    +0.263 C 
ATOM     25  O   UNL     1      33.643   9.299 -23.174  0.00  0.00    -0.269 OA
ATOM     26  N   UNL     1      33.575   7.044 -23.490  0.00  0.00    -0.306 N 
ATOM     27  H   UNL     1      33.767   6.282 -24.084  0.00  0.00    +0.149 HD
BRANCH  26  28
ATOM     28  C   UNL     1      32.936   6.808 -22.193  0.00  0.00    +0.140 C 
BRANCH  28  29
ATOM     29  C   UNL     1      31.589   6.138 -22.313  0.00  0.00    -0.030 A 
ATOM     30  C   UNL     1      31.222   5.051 -21.500  0.00  0.00    +0.007 A 
ATOM     31  C   UNL     1      30.676   6.574 -23.279  0.00  0.00    +0.007 A 
ATOM     32  C   UNL     1      30.071   4.343 -21.779  0.00  0.00    +0.023 A 
ATOM     33  C   UNL     1      29.476   5.922 -23.442  0.00  0.00    +0.023 A 
ATOM     34  C   UNL     1      29.173   4.797 -22.738  0.00  0.00    +0.030 A 
BRANCH  34  35
ATOM     35  N   UNL     1      28.000   4.042 -23.035  0.00  0.00    -0.333 N 
ATOM     36  C   UNL     1      27.630   2.873 -22.222  0.00  0.00    +0.086 C 
ATOM     37  C   UNL     1      26.952   4.554 -23.898  0.00  0.00    +0.086 C 
ATOM     38  C   UNL     1      27.090   1.779 -23.156  0.00  0.00    -0.060 C 
ATOM     39  C   UNL     1      26.429   3.421 -24.794  0.00  0.00    -0.060 C 
ATOM     40  N   UNL     1      25.973   2.287 -23.979  0.00  0.00    +0.380 N 
ATOM     41  C   UNL     1      25.435   1.218 -24.813  0.00  0.00    -0.096 C 
ATOM     42  H   UNL     1      25.225   2.614 -23.368  0.00  0.00    -0.082 HD
ENDBRANCH  34  35
ENDBRANCH  28  29
ENDBRANCH  26  28
ENDBRANCH  10  24
TORSDOF 5
ENDMDL
MODEL 4
REMARK VINA RESULT:   -10.809      3.721      6.371
REMARK INTER + INTRA:         -13.920
REMARK INTER:                 -13.515
REMARK INTRA:                  -0.405
REMARK UNBOUND:                -0.582
REMARK  Name = CTX-1020753
REMARK  7 active torsions:
REMARK  status: ('A' for Active; 'I' for Inactive)
REMARK    1  A    between atoms: C_3  and  C_6
REMARK    2  A    between atoms: N_5  and  C_9
REMARK    3  A    between atoms: C_21  and  C_23
REMARK    4  A    between atoms: N_26  and  C_27
REMARK    5  A    between atoms: C_27  and  C_28
REMARK    6  A    between atoms: C_33  and  N_34
REMARK    7  A    between atoms: N_39  and  C_40
REMARK                            x       y       z     vdW  Elec       q    Type
REMARK                         _______ _______ _______ _____ _____    ______ ____
ROOT
ATOM      1  C   UNL     1      23.884   0.219 -19.469  0.00  0.00    +0.265 C 
ATOM      2  O   UNL     1      24.378  -0.239 -20.508  0.00  0.00    -0.268 OA
ATOM      3  N   UNL     1      24.876   1.067 -18.677  0.00  0.00    -0.290 N 
ATOM      4  C   UNL     1      26.385   1.428 -18.969  0.00  0.00    +0.163 C 
ATOM      5  C   UNL     1      24.291   1.828 -17.678  0.00  0.00    +0.113 C 
ATOM      6  C   UNL     1      27.069   2.681 -18.122  0.00  0.00    +0.063 A 
ATOM      7  C   UNL     1      24.966   2.761 -16.715  0.00  0.00    +0.056 C 
ATOM      8  N   UNL     1      28.385   3.172 -18.315  0.00  0.00    -0.245 NA
ATOM      9  C   UNL     1      26.298   3.260 -17.113  0.00  0.00    -0.023 A 
ATOM     10  C   UNL     1      28.861   4.202 -17.460  0.00  0.00    +0.126 A 
ATOM     11  C   UNL     1      26.791   4.300 -16.313  0.00  0.00    +0.008 A 
ATOM     12  C   UNL     1      28.085   4.755 -16.453  0.00  0.00    +0.033 A 
ENDROOT
BRANCH   1  15
ATOM     13 CL   UNL     1      21.490   2.439 -18.636  0.00  0.00    -0.081 Cl
ATOM     14  C   UNL     1      21.275   0.735 -18.768  0.00  0.00    +0.079 A 
ATOM     15  C   UNL     1      22.280  -0.229 -19.134  0.00  0.00    +0.124 A 
ATOM     16  C   UNL     1      19.938   0.173 -18.542  0.00  0.00    +0.019 A 
ATOM     17  N   UNL     1      21.466  -1.440 -18.983  0.00  0.00    -0.338 N 
ATOM     18  C   UNL     1      20.060  -1.206 -18.673  0.00  0.00    +0.051 A 
ATOM     19  C   UNL     1      18.609   0.697 -18.234  0.00  0.00    +0.011 A 
ATOM     20  C   UNL     1      21.901  -2.817 -19.051  0.00  0.00    +0.149 C 
ATOM     21  C   UNL     1      18.846  -2.024 -18.468  0.00  0.00    +0.026 A 
ATOM     22  C   UNL     1      17.438  -0.112 -18.079  0.00  0.00    +0.001 A 
ATOM     23  C   UNL     1      17.563  -1.477 -18.191  0.00  0.00    +0.002 A 
ENDBRANCH   1  15
BRANCH  10  24
ATOM     24  C   UNL     1      30.300   4.895 -17.556  0.00  0.00    +0.263 C 
ATOM     25  O   UNL     1      31.028   5.021 -16.566  0.00  0.00    -0.269 OA
ATOM     26  N   UNL     1      30.701   5.384 -18.791  0.00  0.00    -0.306 N 
ATOM     27  H   UNL     1      30.126   5.249 -19.579  0.00  0.00    +0.149 HD
BRANCH  26  28
ATOM     28  C   UNL     1      31.972   6.099 -18.936  0.00  0.00    +0.140 C 
BRANCH  28  29
ATOM     29  C   UNL     1      32.182   6.654 -20.323  0.00  0.00    -0.030 A 
ATOM     30  C   UNL     1      31.589   6.073 -21.457  0.00  0.00    +0.007 A 
ATOM     31  C   UNL     1      33.017   7.760 -20.512  0.00  0.00    +0.007 A 
ATOM     32  C   UNL     1      31.969   6.485 -22.718  0.00  0.00    +0.023 A 
ATOM     33  C   UNL     1      33.270   8.228 -21.781  0.00  0.00    +0.023 A 
ATOM     34  C   UNL     1      32.793   7.591 -22.886  0.00  0.00    +0.030 A 
BRANCH  34  35
ATOM     35  N   UNL     1      33.198   7.991 -24.193  0.00  0.00    -0.333 N 
ATOM     36  C   UNL     1      32.264   7.920 -25.327  0.00  0.00    +0.086 C 
ATOM     37  C   UNL     1      34.390   8.787 -24.421  0.00  0.00    +0.086 C 
ATOM     38  C   UNL     1      33.033   7.434 -26.565  0.00  0.00    -0.060 C 
ATOM     39  C   UNL     1      35.110   8.280 -25.679  0.00  0.00    -0.060 C 
ATOM     40  N   UNL     1      34.203   8.294 -26.835  0.00  0.00    +0.380 N 
ATOM     41  C   UNL     1      34.884   7.853 -28.047  0.00  0.00    -0.096 C 
ATOM     42  H   UNL     1      33.891   9.254 -26.982  0.00  0.00    -0.082 HD
ENDBRANCH  34  35
ENDBRANCH  28  29
ENDBRANCH  26  28
ENDBRANCH  10  24
TORSDOF 5
ENDMDL
MODEL 5
REMARK VINA RESULT:    -9.877      3.797     15.235
REMARK INTER + INTRA:         -12.769
REMARK INTER:                 -11.935
REMARK INTRA:                  -0.834
REMARK UNBOUND:                -0.582
REMARK  Name = CTX-1020753
REMARK  7 active torsions:
REMARK  status: ('A' for Active; 'I' for Inactive)
REMARK    1  A    between atoms: C_3  and  C_6
REMARK    2  A    between atoms: N_5  and  C_9
REMARK    3  A    between atoms: C_21  and  C_23
REMARK    4  A    between atoms: N_26  and  C_27
REMARK    5  A    between atoms: C_27  and  C_28
REMARK    6  A    between atoms: C_33  and  N_34
REMARK    7  A    between atoms: N_39  and  C_40
REMARK                            x       y       z     vdW  Elec       q    Type
REMARK                         _______ _______ _______ _____ _____    ______ ____
ROOT
ATOM      1  C   UNL     1      38.669  10.602 -28.066  0.00  0.00    +0.265 C 
ATOM      2  O   UNL     1      39.358  11.050 -27.140  0.00  0.00    -0.268 OA
ATOM      3  N   UNL     1      37.504   9.753 -27.566  0.00  0.00    -0.290 N 
ATOM      4  C   UNL     1      37.064   9.367 -26.100  0.00  0.00    +0.163 C 
ATOM      5  C   UNL     1      36.552   9.480 -28.536  0.00  0.00    +0.113 C 
ATOM      6  C   UNL     1      35.537   8.756 -25.874  0.00  0.00    +0.063 A 
ATOM      7  C   UNL     1      35.293   8.675 -28.392  0.00  0.00    +0.056 C 
ATOM      8  N   UNL     1      34.969   8.428 -24.617  0.00  0.00    -0.245 NA
ATOM      9  C   UNL     1      34.779   8.508 -27.018  0.00  0.00    -0.023 A 
ATOM     10  C   UNL     1      33.676   7.840 -24.585  0.00  0.00    +0.126 A 
ATOM     11  C   UNL     1      33.490   7.958 -26.944  0.00  0.00    +0.008 A 
ATOM     12  C   UNL     1      32.943   7.586 -25.734  0.00  0.00    +0.033 A 
ENDROOT
BRANCH   1  15
ATOM     13 CL   UNL     1      41.141   8.925 -29.626  0.00  0.00    -0.081 Cl
ATOM     14  C   UNL     1      40.256  10.248 -30.285  0.00  0.00    +0.079 A 
ATOM     15  C   UNL     1      39.190  10.970 -29.641  0.00  0.00    +0.124 A 
ATOM     16  C   UNL     1      40.553  10.683 -31.655  0.00  0.00    +0.019 A 
ATOM     17  N   UNL     1      38.953  11.966 -30.692  0.00  0.00    -0.338 N 
ATOM     18  C   UNL     1      39.730  11.775 -31.911  0.00  0.00    +0.051 A 
ATOM     19  C   UNL     1      41.449  10.259 -32.729  0.00  0.00    +0.011 A 
ATOM     20  C   UNL     1      38.092  13.127 -30.638  0.00  0.00    +0.149 C 
ATOM     21  C   UNL     1      39.848  12.426 -33.233  0.00  0.00    +0.026 A 
ATOM     22  C   UNL     1      41.517  10.880 -34.017  0.00  0.00    +0.001 A 
ATOM     23  C   UNL     1      40.717  11.972 -34.262  0.00  0.00    +0.002 A 
ENDBRANCH   1  15
BRANCH  10  24
ATOM     24  C   UNL     1      32.873   7.439 -23.262  0.00  0.00    +0.263 C 
ATOM     25  O   UNL     1      33.265   7.768 -22.138  0.00  0.00    -0.269 OA
ATOM     26  N   UNL     1      31.723   6.676 -23.410  0.00  0.00    -0.306 N 
ATOM     27  H   UNL     1      31.402   6.447 -24.313  0.00  0.00    +0.149 HD
BRANCH  26  28
ATOM     28  C   UNL     1      30.980   6.207 -22.238  0.00  0.00    +0.140 C 
BRANCH  28  29
ATOM     29  C   UNL     1      29.825   5.303 -22.593  0.00  0.00    -0.030 A 
ATOM     30  C   UNL     1      28.852   5.672 -23.538  0.00  0.00    +0.007 A 
ATOM     31  C   UNL     1      29.681   4.069 -21.950  0.00  0.00    +0.007 A 
ATOM     32  C   UNL     1      27.710   4.910 -23.682  0.00  0.00    +0.023 A 
ATOM     33  C   UNL     1      28.593   3.271 -22.217  0.00  0.00    +0.023 A 
ATOM     34  C   UNL     1      27.590   3.684 -23.040  0.00  0.00    +0.030 A 
BRANCH  34  35
ATOM     35  N   UNL     1      26.395   2.918 -23.177  0.00  0.00    -0.333 N 
ATOM     36  C   UNL     1      25.478   2.743 -22.040  0.00  0.00    +0.086 C 
ATOM     37  C   UNL     1      25.848   2.567 -24.474  0.00  0.00    +0.086 C 
ATOM     38  C   UNL     1      24.952   1.300 -22.054  0.00  0.00    -0.060 C 
ATOM     39  C   UNL     1      25.314   1.128 -24.432  0.00  0.00    -0.060 C 
ATOM     40  N   UNL     1      24.329   0.974 -23.353  0.00  0.00    +0.380 N 
ATOM     41  C   UNL     1      23.782  -0.378 -23.325  0.00  0.00    -0.096 C 
ATOM     42  H   UNL     1      23.560   1.619 -23.531  0.00  0.00    -0.082 HD
ENDBRANCH  34  35
ENDBRANCH  28  29
ENDBRANCH  26  28
ENDBRANCH  10  24
TORSDOF 5
ENDMDL
