MODEL 1
REMARK VINA RESULT:   -11.112      0.000      0.000
REMARK INTER + INTRA:         -15.410
REMARK INTER:                 -14.360
REMARK INTRA:                  -1.050
REMARK UNBOUND:                -1.050
REMARK  Name = CTX-1020750
REMARK  7 active torsions:
REMARK  status: ('A' for Active; 'I' for Inactive)
REMARK    1  A    between atoms: C_2  and  C_4
REMARK    2  A    between atoms: N_3  and  C_5
REMARK    3  A    between atoms: C_5  and  C_8
REMARK    4  A    between atoms: C_19  and  O_22
REMARK    5  A    between atoms: C_21  and  C_24
REMARK    6  A    between atoms: O_22  and  C_25
REMARK    7  A    between atoms: C_27  and  C_30
REMARK                            x       y       z     vdW  Elec       q    Type
REMARK                         _______ _______ _______ _____ _____    ______ ____
ROOT
ATOM      1  C   UNL     1      24.948   0.789 -23.246  0.00  0.00    +0.126 A 
ATOM      2  N   UNL     1      25.050   1.125 -21.922  0.00  0.00    -0.245 NA
ATOM      3  C   UNL     1      23.981  -0.058 -23.754  0.00  0.00    +0.033 A 
ATOM      4  C   UNL     1      24.111   0.588 -21.072  0.00  0.00    +0.063 A 
ATOM      5  C   UNL     1      23.049  -0.602 -22.885  0.00  0.00    +0.008 A 
ATOM      6  C   UNL     1      23.106  -0.287 -21.524  0.00  0.00    -0.023 A 
ATOM      7  C   UNL     1      24.189   0.937 -19.576  0.00  0.00    +0.163 C 
ATOM      8  C   UNL     1      22.033  -0.823 -20.613  0.00  0.00    +0.056 C 
ATOM      9  N   UNL     1      22.959   0.609 -18.846  0.00  0.00    -0.289 N 
ATOM     10  C   UNL     1      22.374  -0.687 -19.135  0.00  0.00    +0.113 C 
ATOM     11  C   UNL     1      22.595   1.312 -17.692  0.00  0.00    +0.283 C 
ATOM     12  O   UNL     1      23.434   1.859 -16.979  0.00  0.00    -0.267 OA
ENDROOT
BRANCH  11  13
ATOM     13  C   UNL     1      21.159   1.573 -17.567  0.00  0.00    +0.194 A 
ATOM     14  O   UNL     1      20.554   1.031 -16.453  0.00  0.00    -0.450 OA
ATOM     15  C   UNL     1      20.155   1.849 -18.495  0.00  0.00    +0.008 A 
ATOM     16  C   UNL     1      19.422   0.447 -16.912  0.00  0.00    +0.136 A 
ATOM     17  C   UNL     1      19.204   0.816 -18.230  0.00  0.00    +0.024 A 
ATOM     18  C   UNL     1      20.083   2.832 -19.602  0.00  0.00    +0.048 C 
ATOM     19  C   UNL     1      18.654  -0.458 -16.197  0.00  0.00    +0.047 A 
ATOM     20  C   UNL     1      18.199   0.146 -18.947  0.00  0.00    +0.012 A 
ATOM     21  C   UNL     1      17.686  -1.139 -16.936  0.00  0.00    +0.004 A 
ATOM     22  C   UNL     1      17.485  -0.870 -18.294  0.00  0.00    +0.001 A 
ENDBRANCH  11  13
BRANCH   1  24
ATOM     23  O   UNL     1      26.504   2.444 -23.943  0.00  0.00    -0.269 OA
ATOM     24  C   UNL     1      25.923   1.397 -24.221  0.00  0.00    +0.263 C 
ATOM     25  N   UNL     1      26.133   0.710 -25.391  0.00  0.00    -0.306 N 
ATOM     26  H   UNL     1      25.611  -0.105 -25.569  0.00  0.00    +0.149 HD
BRANCH  25  27
ATOM     27  C   UNL     1      27.106   1.154 -26.370  0.00  0.00    +0.140 C 
BRANCH  27  28
ATOM     28  C   UNL     1      26.453   1.878 -27.516  0.00  0.00    -0.030 A 
ATOM     29  C   UNL     1      26.614   1.422 -28.833  0.00  0.00    +0.009 A 
ATOM     30  C   UNL     1      25.681   3.023 -27.290  0.00  0.00    +0.009 A 
ATOM     31  C   UNL     1      26.008   2.093 -29.903  0.00  0.00    +0.046 A 
ATOM     32  C   UNL     1      25.078   3.689 -28.360  0.00  0.00    +0.046 A 
ATOM     33  C   UNL     1      25.237   3.231 -29.670  0.00  0.00    +0.120 A 
BRANCH  33  34
ATOM     34  O   UNL     1      24.591   3.977 -30.617  0.00  0.00    -0.495 OA
ATOM     35  C   UNL     1      23.169   3.943 -30.604  0.00  0.00    +0.277 C 
ENDBRANCH  33  34
ENDBRANCH  27  28
ENDBRANCH  25  27
ENDBRANCH   1  24
TORSDOF 5
ENDMDL
MODEL 2
REMARK VINA RESULT:   -10.932      3.416      4.763
REMARK INTER + INTRA:         -15.177
REMARK INTER:                 -14.045
REMARK INTRA:                  -1.133
REMARK UNBOUND:                -1.050
REMARK  Name = CTX-1020750
REMARK  7 active torsions:
REMARK  status: ('A' for Active; 'I' for Inactive)
REMARK    1  A    between atoms: C_2  and  C_4
REMARK    2  A    between atoms: N_3  and  C_5
REMARK    3  A    between atoms: C_5  and  C_8
REMARK    4  A    between atoms: C_19  and  O_22
REMARK    5  A    between atoms: C_21  and  C_24
REMARK    6  A    between atoms: O_22  and  C_25
REMARK    7  A    between atoms: C_27  and  C_30
REMARK                            x       y       z     vdW  Elec       q    Type
REMARK                         _______ _______ _______ _____ _____    ______ ____
ROOT
ATOM      1  C   UNL     1      25.261   1.757 -22.878  0.00  0.00    +0.126 A 
ATOM      2  N   UNL     1      25.227   2.026 -21.535  0.00  0.00    -0.245 NA
ATOM      3  C   UNL     1      24.521   0.758 -23.483  0.00  0.00    +0.033 A 
ATOM      4  C   UNL     1      24.387   1.252 -20.769  0.00  0.00    +0.063 A 
ATOM      5  C   UNL     1      23.688  -0.022 -22.698  0.00  0.00    +0.008 A 
ATOM      6  C   UNL     1      23.613   0.215 -21.322  0.00  0.00    -0.023 A 
ATOM      7  C   UNL     1      24.319   1.519 -19.255  0.00  0.00    +0.163 C 
ATOM      8  C   UNL     1      22.638  -0.589 -20.502  0.00  0.00    +0.056 C 
ATOM      9  N   UNL     1      23.154   0.896 -18.615  0.00  0.00    -0.289 N 
ATOM     10  C   UNL     1      22.873  -0.474 -19.002  0.00  0.00    +0.113 C 
ATOM     11  C   UNL     1      22.595   1.435 -17.451  0.00  0.00    +0.283 C 
ATOM     12  O   UNL     1      23.265   2.102 -16.664  0.00  0.00    -0.267 OA
ENDROOT
BRANCH  11  13
ATOM     13  C   UNL     1      21.132   1.380 -17.397  0.00  0.00    +0.194 A 
ATOM     14  O   UNL     1      20.606   0.597 -16.393  0.00  0.00    -0.450 OA
ATOM     15  C   UNL     1      20.135   1.555 -18.356  0.00  0.00    +0.008 A 
ATOM     16  C   UNL     1      19.644  -0.147 -16.989  0.00  0.00    +0.136 A 
ATOM     17  C   UNL     1      19.413   0.325 -18.271  0.00  0.00    +0.024 A 
ATOM     18  C   UNL     1      19.907   2.628 -19.353  0.00  0.00    +0.048 C 
ATOM     19  C   UNL     1      19.053  -1.268 -16.430  0.00  0.00    +0.047 A 
ATOM     20  C   UNL     1      18.604  -0.444 -19.124  0.00  0.00    +0.012 A 
ATOM     21  C   UNL     1      18.285  -2.039 -17.303  0.00  0.00    +0.004 A 
ATOM     22  C   UNL     1      18.092  -1.656 -18.634  0.00  0.00    +0.001 A 
ENDBRANCH  11  13
BRANCH   1  24
ATOM     23  O   UNL     1      26.228   2.362 -24.962  0.00  0.00    -0.269 OA
ATOM     24  C   UNL     1      26.129   2.615 -23.763  0.00  0.00    +0.263 C 
ATOM     25  N   UNL     1      26.756   3.680 -23.166  0.00  0.00    -0.306 N 
ATOM     26  H   UNL     1      26.662   3.809 -22.195  0.00  0.00    +0.149 HD
BRANCH  25  27
ATOM     27  C   UNL     1      27.551   4.621 -23.930  0.00  0.00    +0.140 C 
BRANCH  27  28
ATOM     28  C   UNL     1      28.871   4.905 -23.265  0.00  0.00    -0.030 A 
ATOM     29  C   UNL     1      29.351   4.068 -22.248  0.00  0.00    +0.009 A 
ATOM     30  C   UNL     1      29.637   6.012 -23.644  0.00  0.00    +0.009 A 
ATOM     31  C   UNL     1      30.580   4.327 -21.626  0.00  0.00    +0.046 A 
ATOM     32  C   UNL     1      30.862   6.267 -23.023  0.00  0.00    +0.046 A 
ATOM     33  C   UNL     1      31.341   5.431 -22.012  0.00  0.00    +0.120 A 
BRANCH  33  34
ATOM     34  O   UNL     1      32.552   5.798 -21.494  0.00  0.00    -0.495 OA
ATOM     35  C   UNL     1      33.200   6.911 -22.097  0.00  0.00    +0.277 C 
ENDBRANCH  33  34
ENDBRANCH  27  28
ENDBRANCH  25  27
ENDBRANCH   1  24
TORSDOF 5
ENDMDL
MODEL 3
REMARK VINA RESULT:   -10.652      3.978      5.420
REMARK INTER + INTRA:         -14.815
REMARK INTER:                 -14.059
REMARK INTRA:                  -0.756
REMARK UNBOUND:                -1.050
REMARK  Name = CTX-1020750
REMARK  7 active torsions:
REMARK  status: ('A' for Active; 'I' for Inactive)
REMARK    1  A    between atoms: C_2  and  C_4
REMARK    2  A    between atoms: N_3  and  C_5
REMARK    3  A    between atoms: C_5  and  C_8
REMARK    4  A    between atoms: C_19  and  O_22
REMARK    5  A    between atoms: C_21  and  C_24
REMARK    6  A    between atoms: O_22  and  C_25
REMARK    7  A    between atoms: C_27  and  C_30
REMARK                            x       y       z     vdW  Elec       q    Type
REMARK                         _______ _______ _______ _____ _____    ______ ____
ROOT
ATOM      1  C   UNL     1      25.667   2.615 -23.694  0.00  0.00    +0.126 A 
ATOM      2  N   UNL     1      25.434   2.573 -22.345  0.00  0.00    -0.245 NA
ATOM      3  C   UNL     1      25.263   1.630 -24.577  0.00  0.00    +0.033 A 
ATOM      4  C   UNL     1      24.740   1.485 -21.869  0.00  0.00    +0.063 A 
ATOM      5  C   UNL     1      24.576   0.534 -24.082  0.00  0.00    +0.008 A 
ATOM      6  C   UNL     1      24.308   0.446 -22.713  0.00  0.00    -0.023 A 
ATOM      7  C   UNL     1      24.458   1.397 -20.359  0.00  0.00    +0.163 C 
ATOM      8  C   UNL     1      23.487  -0.713 -22.211  0.00  0.00    +0.056 C 
ATOM      9  N   UNL     1      23.426   0.407 -20.026  0.00  0.00    -0.289 N 
ATOM     10  C   UNL     1      23.535  -0.875 -20.697  0.00  0.00    +0.113 C 
ATOM     11  C   UNL     1      22.639   0.543 -18.878  0.00  0.00    +0.283 C 
ATOM     12  O   UNL     1      23.040   1.157 -17.891  0.00  0.00    -0.267 OA
ENDROOT
BRANCH  11  13
ATOM     13  C   UNL     1      21.237   0.154 -19.052  0.00  0.00    +0.194 A 
ATOM     14  O   UNL     1      20.343   1.197 -19.161  0.00  0.00    -0.450 OA
ATOM     15  C   UNL     1      20.512  -0.983 -18.698  0.00  0.00    +0.008 A 
ATOM     16  C   UNL     1      19.319   0.875 -18.335  0.00  0.00    +0.136 A 
ATOM     17  C   UNL     1      19.456  -0.435 -17.906  0.00  0.00    +0.024 A 
ATOM     18  C   UNL     1      20.781  -2.425 -18.908  0.00  0.00    +0.048 C 
ATOM     19  C   UNL     1      18.339   1.757 -17.910  0.00  0.00    +0.047 A 
ATOM     20  C   UNL     1      18.612  -0.888 -16.878  0.00  0.00    +0.012 A 
ATOM     21  C   UNL     1      17.536   1.304 -16.863  0.00  0.00    +0.004 A 
ATOM     22  C   UNL     1      17.692   0.020 -16.331  0.00  0.00    +0.001 A 
ENDBRANCH  11  13
BRANCH   1  24
ATOM     23  O   UNL     1      25.992   4.316 -25.321  0.00  0.00    -0.269 OA
ATOM     24  C   UNL     1      26.378   3.814 -24.267  0.00  0.00    +0.263 C 
ATOM     25  N   UNL     1      27.431   4.311 -23.540  0.00  0.00    -0.306 N 
ATOM     26  H   UNL     1      27.711   3.844 -22.720  0.00  0.00    +0.149 HD
BRANCH  25  27
ATOM     27  C   UNL     1      28.140   5.508 -23.948  0.00  0.00    +0.140 C 
BRANCH  27  28
ATOM     28  C   UNL     1      29.478   5.623 -23.268  0.00  0.00    -0.030 A 
ATOM     29  C   UNL     1      30.401   6.599 -23.671  0.00  0.00    +0.009 A 
ATOM     30  C   UNL     1      29.827   4.755 -22.229  0.00  0.00    +0.009 A 
ATOM     31  C   UNL     1      31.647   6.711 -23.040  0.00  0.00    +0.046 A 
ATOM     32  C   UNL     1      31.070   4.869 -21.602  0.00  0.00    +0.046 A 
ATOM     33  C   UNL     1      31.987   5.844 -22.002  0.00  0.00    +0.120 A 
BRANCH  33  34
ATOM     34  O   UNL     1      33.162   5.843 -21.302  0.00  0.00    -0.495 OA
ATOM     35  C   UNL     1      33.382   6.931 -20.413  0.00  0.00    +0.277 C 
ENDBRANCH  33  34
ENDBRANCH  27  28
ENDBRANCH  25  27
ENDBRANCH   1  24
TORSDOF 5
ENDMDL
MODEL 4
REMARK VINA RESULT:   -10.175      5.560     10.692
REMARK INTER + INTRA:         -14.199
REMARK INTER:                 -13.878
REMARK INTRA:                  -0.321
REMARK UNBOUND:                -1.050
REMARK  Name = CTX-1020750
REMARK  7 active torsions:
REMARK  status: ('A' for Active; 'I' for Inactive)
REMARK    1  A    between atoms: C_2  and  C_4
REMARK    2  A    between atoms: N_3  and  C_5
REMARK    3  A    between atoms: C_5  and  C_8
REMARK    4  A    between atoms: C_19  and  O_22
REMARK    5  A    between atoms: C_21  and  C_24
REMARK    6  A    between atoms: O_22  and  C_25
REMARK    7  A    between atoms: C_27  and  C_30
REMARK                            x       y       z     vdW  Elec       q    Type
REMARK                         _______ _______ _______ _____ _____    ______ ____
ROOT
ATOM      1  C   UNL     1      24.502   2.360 -17.254  0.00  0.00    +0.126 A 
ATOM      2  N   UNL     1      25.501   2.090 -18.151  0.00  0.00    -0.245 NA
ATOM      3  C   UNL     1      24.636   3.233 -16.191  0.00  0.00    +0.033 A 
ATOM      4  C   UNL     1      26.692   2.752 -17.971  0.00  0.00    +0.063 A 
ATOM      5  C   UNL     1      25.846   3.885 -16.013  0.00  0.00    +0.008 A 
ATOM      6  C   UNL     1      26.896   3.648 -16.905  0.00  0.00    -0.023 A 
ATOM      7  C   UNL     1      27.842   2.478 -18.955  0.00  0.00    +0.163 C 
ATOM      8  C   UNL     1      28.173   4.430 -16.741  0.00  0.00    +0.056 C 
ATOM      9  N   UNL     1      28.910   3.482 -18.884  0.00  0.00    -0.289 N 
ATOM     10  C   UNL     1      29.333   3.866 -17.550  0.00  0.00    +0.113 C 
ATOM     11  C   UNL     1      29.718   3.758 -19.992  0.00  0.00    +0.283 C 
ATOM     12  O   UNL     1      29.917   2.919 -20.869  0.00  0.00    -0.267 OA
ENDROOT
BRANCH  11  13
ATOM     13  C   UNL     1      30.058   5.173 -20.160  0.00  0.00    +0.194 A 
ATOM     14  O   UNL     1      29.795   5.701 -21.405  0.00  0.00    -0.450 OA
ATOM     15  C   UNL     1      30.980   6.013 -19.536  0.00  0.00    +0.008 A 
ATOM     16  C   UNL     1      30.909   6.394 -21.740  0.00  0.00    +0.136 A 
ATOM     17  C   UNL     1      31.747   6.495 -20.641  0.00  0.00    +0.024 A 
ATOM     18  C   UNL     1      31.264   6.270 -18.104  0.00  0.00    +0.048 C 
ATOM     19  C   UNL     1      31.204   6.848 -23.015  0.00  0.00    +0.047 A 
ATOM     20  C   UNL     1      33.046   6.992 -20.842  0.00  0.00    +0.012 A 
ATOM     21  C   UNL     1      32.509   7.303 -23.204  0.00  0.00    +0.004 A 
ATOM     22  C   UNL     1      33.425   7.342 -22.147  0.00  0.00    +0.001 A 
ENDBRANCH  11  13
BRANCH   1  24
ATOM     23  O   UNL     1      22.155   2.178 -16.929  0.00  0.00    -0.269 OA
ATOM     24  C   UNL     1      23.162   1.696 -17.444  0.00  0.00    +0.263 C 
ATOM     25  N   UNL     1      23.138   0.571 -18.231  0.00  0.00    -0.306 N 
ATOM     26  H   UNL     1      23.984   0.217 -18.587  0.00  0.00    +0.149 HD
BRANCH  25  27
ATOM     27  C   UNL     1      21.898  -0.107 -18.551  0.00  0.00    +0.140 C 
BRANCH  27  28
ATOM     28  C   UNL     1      22.107  -1.206 -19.558  0.00  0.00    -0.030 A 
ATOM     29  C   UNL     1      23.109  -1.098 -20.534  0.00  0.00    +0.009 A 
ATOM     30  C   UNL     1      21.302  -2.349 -19.544  0.00  0.00    +0.009 A 
ATOM     31  C   UNL     1      23.308  -2.119 -21.473  0.00  0.00    +0.046 A 
ATOM     32  C   UNL     1      21.503  -3.365 -20.482  0.00  0.00    +0.046 A 
ATOM     33  C   UNL     1      22.503  -3.258 -21.450  0.00  0.00    +0.120 A 
BRANCH  33  34
ATOM     34  O   UNL     1      22.590  -4.324 -22.302  0.00  0.00    -0.495 OA
ATOM     35  C   UNL     1      21.608  -5.343 -22.159  0.00  0.00    +0.277 C 
ENDBRANCH  33  34
ENDBRANCH  27  28
ENDBRANCH  25  27
ENDBRANCH   1  24
TORSDOF 5
ENDMDL
MODEL 5
REMARK VINA RESULT:   -10.001      4.225      6.720
REMARK INTER + INTRA:         -13.975
REMARK INTER:                 -13.080
REMARK INTRA:                  -0.894
REMARK UNBOUND:                -1.050
REMARK  Name = CTX-1020750
REMARK  7 active torsions:
REMARK  status: ('A' for Active; 'I' for Inactive)
REMARK    1  A    between atoms: C_2  and  C_4
REMARK    2  A    between atoms: N_3  and  C_5
REMARK    3  A    between atoms: C_5  and  C_8
REMARK    4  A    between atoms: C_19  and  O_22
REMARK    5  A    between atoms: C_21  and  C_24
REMARK    6  A    between atoms: O_22  and  C_25
REMARK    7  A    between atoms: C_27  and  C_30
REMARK                            x       y       z     vdW  Elec       q    Type
REMARK                         _______ _______ _______ _____ _____    ______ ____
ROOT
ATOM      1  C   UNL     1      27.157   2.464 -22.740  0.00  0.00    +0.126 A 
ATOM      2  N   UNL     1      26.782   1.646 -21.708  0.00  0.00    -0.245 NA
ATOM      3  C   UNL     1      26.467   2.561 -23.935  0.00  0.00    +0.033 A 
ATOM      4  C   UNL     1      25.640   0.902 -21.889  0.00  0.00    +0.063 A 
ATOM      5  C   UNL     1      25.325   1.797 -24.109  0.00  0.00    +0.008 A 
ATOM      6  C   UNL     1      24.897   0.950 -23.083  0.00  0.00    -0.023 A 
ATOM      7  C   UNL     1      25.183  -0.032 -20.754  0.00  0.00    +0.163 C 
ATOM      8  C   UNL     1      23.607   0.192 -23.262  0.00  0.00    +0.056 C 
ATOM      9  N   UNL     1      23.796  -0.487 -20.910  0.00  0.00    -0.289 N 
ATOM     10  C   UNL     1      23.415  -0.921 -22.241  0.00  0.00    +0.113 C 
ATOM     11  C   UNL     1      23.024  -0.841 -19.798  0.00  0.00    +0.283 C 
ATOM     12  O   UNL     1      23.539  -1.246 -18.758  0.00  0.00    -0.267 OA
ENDROOT
BRANCH  11  13
ATOM     13  C   UNL     1      21.619  -0.431 -19.879  0.00  0.00    +0.194 A 
ATOM     14  O   UNL     1      21.401   0.930 -19.893  0.00  0.00    -0.450 OA
ATOM     15  C   UNL     1      20.424  -1.042 -19.502  0.00  0.00    +0.008 A 
ATOM     16  C   UNL     1      20.403   1.139 -19.002  0.00  0.00    +0.136 A 
ATOM     17  C   UNL     1      19.853  -0.074 -18.620  0.00  0.00    +0.024 A 
ATOM     18  C   UNL     1      19.886  -2.397 -19.769  0.00  0.00    +0.048 C 
ATOM     19  C   UNL     1      20.054   2.375 -18.482  0.00  0.00    +0.047 A 
ATOM     20  C   UNL     1      18.950  -0.082 -17.544  0.00  0.00    +0.012 A 
ATOM     21  C   UNL     1      19.186   2.344 -17.391  0.00  0.00    +0.004 A 
ATOM     22  C   UNL     1      18.670   1.137 -16.906  0.00  0.00    +0.001 A 
ENDBRANCH  11  13
BRANCH   1  24
ATOM     23  O   UNL     1      28.525   4.333 -23.269  0.00  0.00    -0.269 OA
ATOM     24  C   UNL     1      28.372   3.337 -22.565  0.00  0.00    +0.263 C 
ATOM     25  N   UNL     1      29.254   2.973 -21.578  0.00  0.00    -0.306 N 
ATOM     26  H   UNL     1      29.092   2.146 -21.071  0.00  0.00    +0.149 HD
BRANCH  25  27
ATOM     27  C   UNL     1      30.417   3.779 -21.262  0.00  0.00    +0.140 C 
BRANCH  27  28
ATOM     28  C   UNL     1      30.222   4.569 -19.996  0.00  0.00    -0.030 A 
ATOM     29  C   UNL     1      30.463   5.950 -19.973  0.00  0.00    +0.009 A 
ATOM     30  C   UNL     1      29.805   3.939 -18.819  0.00  0.00    +0.009 A 
ATOM     31  C   UNL     1      30.281   6.691 -18.797  0.00  0.00    +0.046 A 
ATOM     32  C   UNL     1      29.625   4.680 -17.648  0.00  0.00    +0.046 A 
ATOM     33  C   UNL     1      29.862   6.056 -17.628  0.00  0.00    +0.120 A 
BRANCH  33  34
ATOM     34  O   UNL     1      29.645   6.655 -16.418  0.00  0.00    -0.495 OA
ATOM     35  C   UNL     1      28.626   7.645 -16.364  0.00  0.00    +0.277 C 
ENDBRANCH  33  34
ENDBRANCH  27  28
ENDBRANCH  25  27
ENDBRANCH   1  24
TORSDOF 5
ENDMDL
