REMARK  Name = CTX-1020755
REMARK  7 active torsions:
REMARK  status: ('A' for Active; 'I' for Inactive)
REMARK    1  A    between atoms: C_2  and  C_4
REMARK    2  A    between atoms: N_3  and  C_5
REMARK    3  A    between atoms: C_5  and  C_8
REMARK    4  A    between atoms: C_19  and  N_22
REMARK    5  A    between atoms: C_21  and  C_24
REMARK    6  A    between atoms: C_28  and  C_33
REMARK    7  A    between atoms: N_34  and  C_37
REMARK                            x       y       z     vdW  Elec       q    Type
REMARK                         _______ _______ _______ _____ _____    ______ ____
ROOT
ATOM      1  C   UNL     1       3.010   0.891  -0.991  0.00  0.00    +0.126 A 
ATOM      2  N   UNL     1       3.992   0.436  -1.820  0.00  0.00    -0.245 NA
ATOM      3  C   UNL     1       2.565   2.209  -0.958  0.00  0.00    +0.033 A 
ATOM      4  C   UNL     1       4.502   1.340  -2.708  0.00  0.00    +0.063 A 
ATOM      5  C   UNL     1       3.148   3.128  -1.816  0.00  0.00    +0.008 A 
ATOM      6  C   UNL     1       4.130   2.702  -2.705  0.00  0.00    -0.023 A 
ATOM      7  C   UNL     1       5.528   0.844  -3.725  0.00  0.00    +0.163 C 
ATOM      8  C   UNL     1       4.705   3.693  -3.693  0.00  0.00    +0.056 C 
ATOM      9  N   UNL     1       5.719   1.798  -4.821  0.00  0.00    -0.289 N 
ATOM     10  C   UNL     1       5.966   3.162  -4.366  0.00  0.00    +0.113 C 
ATOM     11  C   UNL     1       5.486   1.587  -6.186  0.00  0.00    +0.283 C 
ATOM     12  O   UNL     1       5.678   2.524  -6.967  0.00  0.00    -0.267 OA
ENDROOT
BRANCH  11  13
ATOM     13  C   UNL     1       5.064   0.288  -6.695  0.00  0.00    +0.193 A 
ATOM     14  O   UNL     1       4.111  -0.469  -6.042  0.00  0.00    -0.455 OA
ATOM     15  C   UNL     1       5.385  -0.319  -7.910  0.00  0.00    +0.003 A 
ATOM     16  C   UNL     1       3.836  -1.526  -6.849  0.00  0.00    +0.109 A 
ATOM     17  C   UNL     1       4.562  -1.466  -8.013  0.00  0.00    -0.003 A 
ATOM     18  C   UNL     1       6.357   0.128  -8.937  0.00  0.00    +0.048 C 
ATOM     19  C   UNL     1       2.808  -2.538  -6.494  0.00  0.00    +0.075 C 
ATOM     20  C   UNL     1       4.418  -2.463  -9.107  0.00  0.00    +0.039 C 
ATOM     21  C   UNL     1       2.899  -3.721  -7.492  0.00  0.00    +0.008 C 
ATOM     22  C   UNL     1       3.107  -3.253  -8.948  0.00  0.00    +0.005 C 
ENDBRANCH  11  13
BRANCH   1  24
ATOM     23  O   UNL     1       1.121   0.116   0.192  0.00  0.00    -0.269 OA
ATOM     24  C   UNL     1       2.301  -0.081  -0.103  0.00  0.00    +0.263 C 
ATOM     25  N   UNL     1       3.029  -1.145   0.385  0.00  0.00    -0.306 N 
ATOM     26  H   UNL     1       3.954  -1.285   0.077  0.00  0.00    +0.149 HD
BRANCH  25  27
ATOM     27  C   UNL     1       2.444  -2.059   1.345  0.00  0.00    +0.140 C 
BRANCH  27  28
ATOM     28  C   UNL     1       2.578  -1.570   2.767  0.00  0.00    -0.030 A 
ATOM     29  C   UNL     1       1.584  -0.774   3.343  0.00  0.00    +0.007 A 
ATOM     30  C   UNL     1       3.692  -1.891   3.544  0.00  0.00    +0.007 A 
ATOM     31  C   UNL     1       1.698  -0.328   4.667  0.00  0.00    +0.023 A 
ATOM     32  C   UNL     1       3.797  -1.435   4.868  0.00  0.00    +0.023 A 
ATOM     33  C   UNL     1       2.803  -0.647   5.468  0.00  0.00    +0.030 A 
BRANCH  33  34
ATOM     34  N   UNL     1       2.853  -0.259   6.793  0.00  0.00    -0.333 N 
ATOM     35  C   UNL     1       3.696  -0.951   7.779  0.00  0.00    +0.086 C 
ATOM     36  C   UNL     1       2.429   1.088   7.219  0.00  0.00    +0.086 C 
ATOM     37  C   UNL     1       2.962  -0.994   9.139  0.00  0.00    -0.060 C 
ATOM     38  C   UNL     1       1.735   1.007   8.600  0.00  0.00    -0.060 C 
ATOM     39  N   UNL     1       2.588   0.354   9.621  0.00  0.00    +0.380 N 
ATOM     40  C   UNL     1       1.890   0.262  10.897  0.00  0.00    -0.096 C 
ATOM     41  H   UNL     1       3.428   0.914   9.768  0.00  0.00    -0.082 HD
ENDBRANCH  33  34
ENDBRANCH  27  28
ENDBRANCH  25  27
ENDBRANCH   1  24
TORSDOF 5
