MODEL 1
REMARK VINA RESULT:   -10.926      0.000      0.000
REMARK INTER + INTRA:         -14.029
REMARK INTER:                 -13.481
REMARK INTRA:                  -0.548
REMARK UNBOUND:                -0.548
REMARK  Name = CTX-1020754
REMARK  5 active torsions:
REMARK  status: ('A' for Active; 'I' for Inactive)
REMARK    1  A    between atoms: C_2  and  C_4
REMARK    2  A    between atoms: N_3  and  C_5
REMARK    3  A    between atoms: C_5  and  C_8
REMARK    4  A    between atoms: C_20  and  C_22
REMARK    5  A    between atoms: C_24  and  C_27
REMARK                            x       y       z     vdW  Elec       q    Type
REMARK                         _______ _______ _______ _____ _____    ______ ____
ROOT
ATOM      1  C   UNL     1      29.204   5.044 -22.423  0.00  0.00    +0.126 A 
ATOM      2  N   UNL     1      28.898   3.785 -21.987  0.00  0.00    -0.245 NA
ATOM      3  C   UNL     1      28.565   5.671 -23.487  0.00  0.00    +0.033 A 
ATOM      4  C   UNL     1      27.880   3.135 -22.636  0.00  0.00    +0.063 A 
ATOM      5  C   UNL     1      27.565   4.983 -24.157  0.00  0.00    +0.008 A 
ATOM      6  C   UNL     1      27.212   3.698 -23.737  0.00  0.00    -0.023 A 
ATOM      7  C   UNL     1      27.466   1.753 -22.121  0.00  0.00    +0.163 C 
ATOM      8  C   UNL     1      26.054   3.004 -24.411  0.00  0.00    +0.056 C 
ATOM      9  N   UNL     1      26.153   1.320 -22.613  0.00  0.00    -0.289 N 
ATOM     10  C   UNL     1      25.930   1.530 -24.036  0.00  0.00    +0.113 C 
ATOM     11  C   UNL     1      25.334   0.491 -21.827  0.00  0.00    +0.283 C 
ATOM     12  O   UNL     1      25.793  -0.085 -20.836  0.00  0.00    -0.267 OA
ENDROOT
BRANCH  11  13
ATOM     13  C   UNL     1      23.880   0.533 -22.113  0.00  0.00    +0.194 A 
ATOM     14  O   UNL     1      23.126   0.577 -20.946  0.00  0.00    -0.450 OA
ATOM     15  C   UNL     1      23.122  -0.285 -22.963  0.00  0.00    +0.008 A 
ATOM     16  C   UNL     1      22.625  -0.681 -20.846  0.00  0.00    +0.136 A 
ATOM     17  C   UNL     1      22.687  -1.317 -22.073  0.00  0.00    +0.024 A 
ATOM     18  C   UNL     1      22.634  -0.120 -24.354  0.00  0.00    +0.048 C 
ATOM     19  C   UNL     1      22.156  -1.255 -19.673  0.00  0.00    +0.047 A 
ATOM     20  C   UNL     1      22.197  -2.615 -22.186  0.00  0.00    +0.012 A 
ATOM     21  C   UNL     1      21.751  -2.587 -19.782  0.00  0.00    +0.004 A 
ATOM     22  C   UNL     1      21.778  -3.258 -21.009  0.00  0.00    +0.001 A 
ENDBRANCH  11  13
BRANCH   1  24
ATOM     23  O   UNL     1      30.000   6.686 -20.901  0.00  0.00    -0.269 OA
ATOM     24  C   UNL     1      30.285   5.820 -21.726  0.00  0.00    +0.263 C 
ATOM     25  N   UNL     1      31.592   5.533 -22.056  0.00  0.00    -0.303 N 
ATOM     26  H   UNL     1      31.798   4.827 -22.711  0.00  0.00    +0.150 HD
BRANCH  25  27
ATOM     27  C   UNL     1      32.656   6.281 -21.426  0.00  0.00    +0.180 C 
BRANCH  27  28
ATOM     28  C   UNL     1      33.056   7.438 -22.245  0.00  0.00    +0.142 A 
ATOM     29  O   UNL     1      33.602   7.196 -23.478  0.00  0.00    -0.446 OA
ATOM     30  C   UNL     1      33.076   8.799 -22.047  0.00  0.00    +0.157 A 
ATOM     31  C   UNL     1      33.914   8.438 -23.944  0.00  0.00    +0.308 A 
ATOM     32  N   UNL     1      33.618   9.430 -23.136  0.00  0.00    -0.224 NA
ENDBRANCH  27  28
ENDBRANCH  25  27
ENDBRANCH   1  24
TORSDOF 4
ENDMDL
MODEL 2
REMARK VINA RESULT:   -10.575      5.374      7.522
REMARK INTER + INTRA:         -13.596
REMARK INTER:                 -12.975
REMARK INTRA:                  -0.621
REMARK UNBOUND:                -0.548
REMARK  Name = CTX-1020754
REMARK  5 active torsions:
REMARK  status: ('A' for Active; 'I' for Inactive)
REMARK    1  A    between atoms: C_2  and  C_4
REMARK    2  A    between atoms: N_3  and  C_5
REMARK    3  A    between atoms: C_5  and  C_8
REMARK    4  A    between atoms: C_20  and  C_22
REMARK    5  A    between atoms: C_24  and  C_27
REMARK                            x       y       z     vdW  Elec       q    Type
REMARK                         _______ _______ _______ _____ _____    ______ ____
ROOT
ATOM      1  C   UNL     1      24.502   0.965 -23.542  0.00  0.00    +0.126 A 
ATOM      2  N   UNL     1      24.429   1.136 -22.188  0.00  0.00    -0.245 NA
ATOM      3  C   UNL     1      23.812  -0.024 -24.234  0.00  0.00    +0.033 A 
ATOM      4  C   UNL     1      23.602   0.289 -21.499  0.00  0.00    +0.063 A 
ATOM      5  C   UNL     1      23.010  -0.899 -23.516  0.00  0.00    +0.008 A 
ATOM      6  C   UNL     1      22.898  -0.752 -22.132  0.00  0.00    -0.023 A 
ATOM      7  C   UNL     1      23.443   0.505 -19.991  0.00  0.00    +0.163 C 
ATOM      8  C   UNL     1      21.943  -1.645 -21.379  0.00  0.00    +0.056 C 
ATOM      9  N   UNL     1      22.274  -0.178 -19.425  0.00  0.00    -0.289 N 
ATOM     10  C   UNL     1      22.095  -1.555 -19.864  0.00  0.00    +0.113 C 
ATOM     11  C   UNL     1      21.594   0.366 -18.322  0.00  0.00    +0.283 C 
ATOM     12  O   UNL     1      22.101   1.275 -17.660  0.00  0.00    -0.267 OA
ENDROOT
BRANCH  11  13
ATOM     13  C   UNL     1      20.179  -0.044 -18.149  0.00  0.00    +0.194 A 
ATOM     14  O   UNL     1      19.340   1.054 -17.995  0.00  0.00    -0.450 OA
ATOM     15  C   UNL     1      19.636  -0.997 -17.275  0.00  0.00    +0.008 A 
ATOM     16  C   UNL     1      19.048   1.046 -16.669  0.00  0.00    +0.136 A 
ATOM     17  C   UNL     1      19.310  -0.202 -16.132  0.00  0.00    +0.024 A 
ATOM     18  C   UNL     1      19.237  -2.415 -17.449  0.00  0.00    +0.048 C 
ATOM     19  C   UNL     1      18.591   2.143 -15.954  0.00  0.00    +0.047 A 
ATOM     20  C   UNL     1      19.052  -0.423 -14.782  0.00  0.00    +0.012 A 
ATOM     21  C   UNL     1      18.422   1.931 -14.584  0.00  0.00    +0.004 A 
ATOM     22  C   UNL     1      18.654   0.679 -14.006  0.00  0.00    +0.001 A 
ENDBRANCH  11  13
BRANCH   1  24
ATOM     23  O   UNL     1      25.664   3.001 -23.925  0.00  0.00    -0.269 OA
ATOM     24  C   UNL     1      25.365   1.888 -24.354  0.00  0.00    +0.263 C 
ATOM     25  N   UNL     1      25.789   1.447 -25.589  0.00  0.00    -0.303 N 
ATOM     26  H   UNL     1      25.546   0.548 -25.908  0.00  0.00    +0.150 HD
BRANCH  25  27
ATOM     27  C   UNL     1      26.595   2.322 -26.408  0.00  0.00    +0.180 C 
BRANCH  27  28
ATOM     28  C   UNL     1      25.789   2.965 -27.461  0.00  0.00    +0.142 A 
ATOM     29  O   UNL     1      25.943   2.523 -28.749  0.00  0.00    -0.446 OA
ATOM     30  C   UNL     1      24.900   4.014 -27.490  0.00  0.00    +0.157 A 
ATOM     31  C   UNL     1      25.127   3.340 -29.472  0.00  0.00    +0.308 A 
ATOM     32  N   UNL     1      24.478   4.243 -28.773  0.00  0.00    -0.224 NA
ENDBRANCH  27  28
ENDBRANCH  25  27
ENDBRANCH   1  24
TORSDOF 4
ENDMDL
MODEL 3
REMARK VINA RESULT:   -10.007      5.272     10.818
REMARK INTER + INTRA:         -12.895
REMARK INTER:                 -12.848
REMARK INTRA:                  -0.047
REMARK UNBOUND:                -0.548
REMARK  Name = CTX-1020754
REMARK  5 active torsions:
REMARK  status: ('A' for Active; 'I' for Inactive)
REMARK    1  A    between atoms: C_2  and  C_4
REMARK    2  A    between atoms: N_3  and  C_5
REMARK    3  A    between atoms: C_5  and  C_8
REMARK    4  A    between atoms: C_20  and  C_22
REMARK    5  A    between atoms: C_24  and  C_27
REMARK                            x       y       z     vdW  Elec       q    Type
REMARK                         _______ _______ _______ _____ _____    ______ ____
ROOT
ATOM      1  C   UNL     1      29.132   3.776 -17.826  0.00  0.00    +0.126 A 
ATOM      2  N   UNL     1      29.368   3.591 -19.160  0.00  0.00    -0.245 NA
ATOM      3  C   UNL     1      29.691   4.805 -17.078  0.00  0.00    +0.033 A 
ATOM      4  C   UNL     1      30.184   4.502 -19.778  0.00  0.00    +0.063 A 
ATOM      5  C   UNL     1      30.547   5.694 -17.710  0.00  0.00    +0.008 A 
ATOM      6  C   UNL     1      30.806   5.549 -19.075  0.00  0.00    -0.023 A 
ATOM      7  C   UNL     1      30.406   4.363 -21.287  0.00  0.00    +0.163 C 
ATOM      8  C   UNL     1      31.658   6.584 -19.768  0.00  0.00    +0.056 C 
ATOM      9  N   UNL     1      30.960   5.573 -21.907  0.00  0.00    -0.289 N 
ATOM     10  C   UNL     1      32.066   6.184 -21.183  0.00  0.00    +0.113 C 
ATOM     11  C   UNL     1      30.643   5.904 -23.235  0.00  0.00    +0.283 C 
ATOM     12  O   UNL     1      30.108   5.074 -23.976  0.00  0.00    -0.267 OA
ENDROOT
BRANCH  11  13
ATOM     13  C   UNL     1      30.770   7.332 -23.611  0.00  0.00    +0.194 A 
ATOM     14  O   UNL     1      30.902   7.494 -24.985  0.00  0.00    -0.450 OA
ATOM     15  C   UNL     1      31.622   8.312 -23.082  0.00  0.00    +0.008 A 
ATOM     16  C   UNL     1      32.217   7.787 -25.145  0.00  0.00    +0.136 A 
ATOM     17  C   UNL     1      32.757   8.218 -23.946  0.00  0.00    +0.024 A 
ATOM     18  C   UNL     1      31.429   9.377 -22.067  0.00  0.00    +0.048 C 
ATOM     19  C   UNL     1      32.923   7.637 -26.330  0.00  0.00    +0.047 A 
ATOM     20  C   UNL     1      34.098   8.592 -23.906  0.00  0.00    +0.012 A 
ATOM     21  C   UNL     1      34.286   7.931 -26.252  0.00  0.00    +0.004 A 
ATOM     22  C   UNL     1      34.865   8.391 -25.065  0.00  0.00    +0.001 A 
ENDBRANCH  11  13
BRANCH   1  24
ATOM     23  O   UNL     1      27.942   1.733 -17.590  0.00  0.00    -0.269 OA
ATOM     24  C   UNL     1      28.215   2.830 -17.105  0.00  0.00    +0.263 C 
ATOM     25  N   UNL     1      27.689   3.243 -15.900  0.00  0.00    -0.303 N 
ATOM     26  H   UNL     1      27.930   4.121 -15.525  0.00  0.00    +0.150 HD
BRANCH  25  27
ATOM     27  C   UNL     1      26.780   2.370 -15.195  0.00  0.00    +0.180 C 
BRANCH  27  28
ATOM     28  C   UNL     1      25.383   2.814 -15.345  0.00  0.00    +0.142 A 
ATOM     29  O   UNL     1      24.445   2.287 -14.495  0.00  0.00    -0.446 OA
ATOM     30  C   UNL     1      24.722   3.640 -16.224  0.00  0.00    +0.157 A 
ATOM     31  C   UNL     1      23.275   2.839 -14.921  0.00  0.00    +0.308 A 
ATOM     32  N   UNL     1      23.381   3.655 -15.945  0.00  0.00    -0.224 NA
ENDBRANCH  27  28
ENDBRANCH  25  27
ENDBRANCH   1  24
TORSDOF 4
ENDMDL
MODEL 4
REMARK VINA RESULT:    -9.979      3.097      5.686
REMARK INTER + INTRA:         -12.861
REMARK INTER:                 -12.253
REMARK INTRA:                  -0.608
REMARK UNBOUND:                -0.548
REMARK  Name = CTX-1020754
REMARK  5 active torsions:
REMARK  status: ('A' for Active; 'I' for Inactive)
REMARK    1  A    between atoms: C_2  and  C_4
REMARK    2  A    between atoms: N_3  and  C_5
REMARK    3  A    between atoms: C_5  and  C_8
REMARK    4  A    between atoms: C_20  and  C_22
REMARK    5  A    between atoms: C_24  and  C_27
REMARK                            x       y       z     vdW  Elec       q    Type
REMARK                         _______ _______ _______ _____ _____    ______ ____
ROOT
ATOM      1  C   UNL     1      25.217   1.702 -23.745  0.00  0.00    +0.126 A 
ATOM      2  N   UNL     1      25.085   1.626 -22.386  0.00  0.00    -0.245 NA
ATOM      3  C   UNL     1      24.565   0.856 -24.635  0.00  0.00    +0.033 A 
ATOM      4  C   UNL     1      24.233   0.669 -21.899  0.00  0.00    +0.063 A 
ATOM      5  C   UNL     1      23.738  -0.132 -24.122  0.00  0.00    +0.008 A 
ATOM      6  C   UNL     1      23.564  -0.238 -22.740  0.00  0.00    -0.023 A 
ATOM      7  C   UNL     1      24.007   0.610 -20.386  0.00  0.00    +0.163 C 
ATOM      8  C   UNL     1      22.583  -1.251 -22.205  0.00  0.00    +0.056 C 
ATOM      9  N   UNL     1      22.818  -0.162 -20.005  0.00  0.00    -0.289 N 
ATOM     10  C   UNL     1      22.667  -1.437 -20.693  0.00  0.00    +0.113 C 
ATOM     11  C   UNL     1      22.087   0.174 -18.854  0.00  0.00    +0.283 C 
ATOM     12  O   UNL     1      22.558   0.948 -18.016  0.00  0.00    -0.267 OA
ENDROOT
BRANCH  11  13
ATOM     13  C   UNL     1      20.668  -0.257 -18.820  0.00  0.00    +0.194 A 
ATOM     14  O   UNL     1      19.799   0.824 -18.900  0.00  0.00    -0.450 OA
ATOM     15  C   UNL     1      20.030  -1.126 -17.923  0.00  0.00    +0.008 A 
ATOM     16  C   UNL     1      19.335   0.951 -17.630  0.00  0.00    +0.136 A 
ATOM     17  C   UNL     1      19.543  -0.222 -16.928  0.00  0.00    +0.024 A 
ATOM     18  C   UNL     1      19.681  -2.566 -17.987  0.00  0.00    +0.048 C 
ATOM     19  C   UNL     1      18.769   2.105 -17.107  0.00  0.00    +0.047 A 
ATOM     20  C   UNL     1      19.113  -0.303 -15.606  0.00  0.00    +0.012 A 
ATOM     21  C   UNL     1      18.424   2.038 -15.756  0.00  0.00    +0.004 A 
ATOM     22  C   UNL     1      18.599   0.864 -15.016  0.00  0.00    +0.001 A 
ENDBRANCH  11  13
BRANCH   1  24
ATOM     23  O   UNL     1      26.344   2.768 -25.545  0.00  0.00    -0.269 OA
ATOM     24  C   UNL     1      26.109   2.756 -24.338  0.00  0.00    +0.263 C 
ATOM     25  N   UNL     1      26.656   3.686 -23.481  0.00  0.00    -0.303 N 
ATOM     26  H   UNL     1      26.445   3.664 -22.520  0.00  0.00    +0.150 HD
BRANCH  25  27
ATOM     27  C   UNL     1      27.542   4.695 -24.014  0.00  0.00    +0.180 C 
BRANCH  27  28
ATOM     28  C   UNL     1      28.785   4.788 -23.228  0.00  0.00    +0.142 A 
ATOM     29  O   UNL     1      29.032   3.812 -22.297  0.00  0.00    -0.446 OA
ATOM     30  C   UNL     1      29.807   5.705 -23.143  0.00  0.00    +0.157 A 
ATOM     31  C   UNL     1      30.197   4.209 -21.714  0.00  0.00    +0.308 A 
ATOM     32  N   UNL     1      30.706   5.326 -22.181  0.00  0.00    -0.224 NA
ENDBRANCH  27  28
ENDBRANCH  25  27
ENDBRANCH   1  24
TORSDOF 4
ENDMDL
MODEL 5
REMARK VINA RESULT:    -9.289      2.521     11.140
REMARK INTER + INTRA:         -12.009
REMARK INTER:                 -11.597
REMARK INTRA:                  -0.412
REMARK UNBOUND:                -0.548
REMARK  Name = CTX-1020754
REMARK  5 active torsions:
REMARK  status: ('A' for Active; 'I' for Inactive)
REMARK    1  A    between atoms: C_2  and  C_4
REMARK    2  A    between atoms: N_3  and  C_5
REMARK    3  A    between atoms: C_5  and  C_8
REMARK    4  A    between atoms: C_20  and  C_22
REMARK    5  A    between atoms: C_24  and  C_27
REMARK                            x       y       z     vdW  Elec       q    Type
REMARK                         _______ _______ _______ _____ _____    ______ ____
ROOT
ATOM      1  C   UNL     1      25.270   0.552 -21.224  0.00  0.00    +0.126 A 
ATOM      2  N   UNL     1      26.352   1.032 -21.909  0.00  0.00    -0.245 NA
ATOM      3  C   UNL     1      25.051   0.775 -19.870  0.00  0.00    +0.033 A 
ATOM      4  C   UNL     1      27.242   1.798 -21.204  0.00  0.00    +0.063 A 
ATOM      5  C   UNL     1      25.984   1.518 -19.162  0.00  0.00    +0.008 A 
ATOM      6  C   UNL     1      27.098   2.039 -19.826  0.00  0.00    -0.023 A 
ATOM      7  C   UNL     1      28.423   2.411 -21.962  0.00  0.00    +0.163 C 
ATOM      8  C   UNL     1      28.048   2.930 -19.065  0.00  0.00    +0.056 C 
ATOM      9  N   UNL     1      29.082   3.500 -21.230  0.00  0.00    -0.289 N 
ATOM     10  C   UNL     1      29.339   3.227 -19.823  0.00  0.00    +0.113 C 
ATOM     11  C   UNL     1      29.683   4.564 -21.923  0.00  0.00    +0.283 C 
ATOM     12  O   UNL     1      29.889   4.484 -23.138  0.00  0.00    -0.267 OA
ENDROOT
BRANCH  11  13
ATOM     13  C   UNL     1      29.837   5.837 -21.178  0.00  0.00    +0.194 A 
ATOM     14  O   UNL     1      29.693   6.941 -22.009  0.00  0.00    -0.450 OA
ATOM     15  C   UNL     1      30.852   6.224 -20.291  0.00  0.00    +0.008 A 
ATOM     16  C   UNL     1      30.966   7.387 -22.166  0.00  0.00    +0.136 A 
ATOM     17  C   UNL     1      31.773   6.885 -21.161  0.00  0.00    +0.024 A 
ATOM     18  C   UNL     1      30.954   6.221 -18.811  0.00  0.00    +0.048 C 
ATOM     19  C   UNL     1      31.397   8.197 -23.207  0.00  0.00    +0.047 A 
ATOM     20  C   UNL     1      33.118   7.247 -21.131  0.00  0.00    +0.012 A 
ATOM     21  C   UNL     1      32.765   8.479 -23.214  0.00  0.00    +0.004 A 
ATOM     22  C   UNL     1      33.611   8.008 -22.204  0.00  0.00    +0.001 A 
ENDBRANCH  11  13
BRANCH   1  24
ATOM     23  O   UNL     1      23.574   0.239 -22.858  0.00  0.00    -0.269 OA
ATOM     24  C   UNL     1      24.241  -0.263 -21.955  0.00  0.00    +0.263 C 
ATOM     25  N   UNL     1      24.068  -1.573 -21.566  0.00  0.00    -0.303 N 
ATOM     26  H   UNL     1      24.621  -1.957 -20.847  0.00  0.00    +0.150 HD
BRANCH  25  27
ATOM     27  C   UNL     1      23.066  -2.376 -22.227  0.00  0.00    +0.180 C 
BRANCH  27  28
ATOM     28  C   UNL     1      22.424  -3.314 -21.290  0.00  0.00    +0.142 A 
ATOM     29  O   UNL     1      22.532  -4.656 -21.546  0.00  0.00    -0.446 OA
ATOM     30  C   UNL     1      21.635  -3.172 -20.172  0.00  0.00    +0.157 A 
ATOM     31  C   UNL     1      21.799  -5.236 -20.556  0.00  0.00    +0.308 A 
ATOM     32  N   UNL     1      21.246  -4.401 -19.706  0.00  0.00    -0.224 NA
ENDBRANCH  27  28
ENDBRANCH  25  27
ENDBRANCH   1  24
TORSDOF 4
ENDMDL
