REMARK  Name = CTX-1020749
REMARK  6 active torsions:
REMARK  status: ('A' for Active; 'I' for Inactive)
REMARK    1  A    between atoms: C_3  and  C_6
REMARK    2  A    between atoms: C_21  and  C_22
REMARK    3  A    between atoms: N_24  and  C_25
REMARK    4  A    between atoms: C_25  and  C_26
REMARK    5  A    between atoms: C_31  and  N_32
REMARK    6  A    between atoms: N_37  and  C_38
REMARK                            x       y       z     vdW  Elec       q    Type
REMARK                         _______ _______ _______ _____ _____    ______ ____
ROOT
ATOM      1  C   UNL     1       4.243  -3.246  -0.788  0.00  0.00    +0.284 C 
ATOM      2  O   UNL     1       5.321  -2.853  -1.047  0.00  0.00    -0.267 OA
ATOM      3  N   UNL     1       4.030  -4.703  -0.564  0.00  0.00    -0.290 N 
ATOM      4  C   UNL     1       4.972  -5.901  -0.079  0.00  0.00    +0.144 C 
ATOM      5  C   UNL     1       2.970  -4.998  -1.510  0.00  0.00    +0.113 C 
ATOM      6  C   UNL     1       4.196  -7.340  -0.183  0.00  0.00    -0.019 A 
ATOM      7  C   UNL     1       2.965  -6.367  -2.104  0.00  0.00    +0.062 C 
ATOM      8  C   UNL     1       3.359  -7.535  -1.257  0.00  0.00    -0.003 A 
ATOM      9  C   UNL     1       3.980  -8.586   0.640  0.00  0.00    +0.026 A 
ATOM     10  S   UNL     1       2.641  -9.032  -1.487  0.00  0.00    -0.088 S 
ATOM     11  C   UNL     1       2.865  -9.344   0.176  0.00  0.00    +0.074 A 
ENDROOT
BRANCH   1  14
ATOM     12 CL   UNL     1       2.586  -1.361  -3.371  0.00  0.00    -0.079 Cl
ATOM     13  C   UNL     1       2.214  -1.730  -1.741  0.00  0.00    +0.099 A 
ATOM     14  C   UNL     1       2.930  -2.451  -0.801  0.00  0.00    +0.209 A 
ATOM     15  C   UNL     1       0.905  -1.398  -1.180  0.00  0.00    +0.039 A 
ATOM     16  O   UNL     1       2.134  -2.565   0.323  0.00  0.00    -0.449 OA
ATOM     17  C   UNL     1       0.940  -1.943   0.096  0.00  0.00    +0.137 A 
ATOM     18  C   UNL     1      -0.312  -0.751  -1.576  0.00  0.00    +0.013 A 
ATOM     19  C   UNL     1      -0.128  -1.876   0.999  0.00  0.00    +0.047 A 
ATOM     20  C   UNL     1      -1.386  -0.658  -0.673  0.00  0.00    +0.001 A 
ATOM     21  C   UNL     1      -1.284  -1.222   0.594  0.00  0.00    +0.004 A 
ENDBRANCH   1  14
BRANCH  11  22
ATOM     22  C   UNL     1       1.754 -10.113   0.782  0.00  0.00    +0.251 C 
ATOM     23  O   UNL     1       0.827  -9.527   1.416  0.00  0.00    -0.270 OA
ATOM     24  N   UNL     1       1.730 -11.471   0.512  0.00  0.00    -0.307 N 
ATOM     25  H   UNL     1       2.577 -11.931   0.312  0.00  0.00    +0.149 HD
BRANCH  24  26
ATOM     26  C   UNL     1       0.477 -12.250   0.512  0.00  0.00    +0.139 C 
BRANCH  26  27
ATOM     27  C   UNL     1       0.045 -12.641  -0.888  0.00  0.00    -0.030 A 
ATOM     28  C   UNL     1       0.480 -13.839  -1.464  0.00  0.00    +0.007 A 
ATOM     29  C   UNL     1      -0.788 -11.824  -1.660  0.00  0.00    +0.007 A 
ATOM     30  C   UNL     1       0.121 -14.185  -2.776  0.00  0.00    +0.023 A 
ATOM     31  C   UNL     1      -1.144 -12.181  -2.978  0.00  0.00    +0.023 A 
ATOM     32  C   UNL     1      -0.677 -13.363  -3.579  0.00  0.00    +0.030 A 
BRANCH  32  33
ATOM     33  N   UNL     1      -0.920 -13.679  -4.907  0.00  0.00    -0.333 N 
ATOM     34  C   UNL     1      -1.161 -15.065  -5.352  0.00  0.00    +0.086 C 
ATOM     35  C   UNL     1      -1.286 -12.662  -5.907  0.00  0.00    +0.086 C 
ATOM     36  C   UNL     1      -0.462 -15.316  -6.710  0.00  0.00    -0.060 C 
ATOM     37  C   UNL     1      -0.607 -12.985  -7.266  0.00  0.00    -0.060 C 
ATOM     38  N   UNL     1      -0.906 -14.354  -7.743  0.00  0.00    +0.380 N 
ATOM     39  C   UNL     1      -0.257 -14.620  -9.023  0.00  0.00    -0.096 C 
ATOM     40  H   UNL     1      -1.910 -14.452  -7.895  0.00  0.00    -0.082 HD
ENDBRANCH  32  33
ENDBRANCH  26  27
ENDBRANCH  24  26
ENDBRANCH  11  22
TORSDOF 5
