MODEL 1
REMARK VINA RESULT:   -11.742      0.000      0.000
REMARK INTER + INTRA:         -15.191
REMARK INTER:                 -15.174
REMARK INTRA:                  -0.017
REMARK UNBOUND:                -0.017
REMARK  Name = CTX-1020903
REMARK  8 active torsions:
REMARK  status: ('A' for Active; 'I' for Inactive)
REMARK    1  A    between atoms: C_2  and  C_4
REMARK    2  A    between atoms: C_8  and  C_13
REMARK    3  A    between atoms: C_18  and  C_22
REMARK    4  A    between atoms: N_19  and  C_23
REMARK    5  A    between atoms: N_25  and  C_26
REMARK    6  A    between atoms: C_26  and  C_27
REMARK    7  A    between atoms: C_32  and  N_33
REMARK    8  A    between atoms: N_38  and  C_39
REMARK                            x       y       z     vdW  Elec       q    Type
REMARK                         _______ _______ _______ _____ _____    ______ ____
ROOT
ATOM      1  O   UNL     1      33.259   6.574 -20.671  0.00  0.00    -0.267 OA
ATOM      2  C   UNL     1      32.620   6.800 -21.705  0.00  0.00    +0.283 C 
ATOM      3  N   UNL     1      31.245   6.454 -21.714  0.00  0.00    -0.289 N 
ATOM      4  C   UNL     1      30.154   6.802 -22.691  0.00  0.00    +0.165 C 
ATOM      5  C   UNL     1      30.766   5.721 -20.518  0.00  0.00    +0.115 C 
ATOM      6  C   UNL     1      29.229   5.587 -22.905  0.00  0.00    +0.080 A 
ATOM      7  C   UNL     1      30.190   4.341 -20.888  0.00  0.00    +0.074 C 
ATOM      8  N   UNL     1      28.238   5.403 -23.871  0.00  0.00    -0.226 NA
ATOM      9  C   UNL     1      29.294   4.506 -22.044  0.00  0.00    +0.045 A 
ATOM     10  C   UNL     1      27.714   4.192 -23.616  0.00  0.00    +0.197 A 
ATOM     11  N   UNL     1      28.347   3.612 -22.519  0.00  0.00    -0.327 N 
ATOM     12  C   UNL     1      28.115   2.274 -22.021  0.00  0.00    +0.151 C 
ENDROOT
BRANCH   2  13
ATOM     13  C   UNL     1      33.345   7.367 -22.840  0.00  0.00    +0.194 A 
ATOM     14  O   UNL     1      32.949   6.847 -24.090  0.00  0.00    -0.450 OA
ATOM     15  C   UNL     1      33.940   8.574 -23.211  0.00  0.00    +0.008 A 
ATOM     16  C   UNL     1      33.624   7.551 -25.042  0.00  0.00    +0.136 A 
ATOM     17  C   UNL     1      34.658   8.235 -24.429  0.00  0.00    +0.024 A 
ATOM     18  C   UNL     1      33.086   9.822 -23.114  0.00  0.00    +0.048 C 
ATOM     19  C   UNL     1      33.203   7.846 -26.344  0.00  0.00    +0.047 A 
ATOM     20  C   UNL     1      35.632   8.803 -25.290  0.00  0.00    +0.012 A 
ATOM     21  C   UNL     1      34.292   8.125 -27.179  0.00  0.00    +0.004 A 
ATOM     22  C   UNL     1      35.455   8.699 -26.681  0.00  0.00    +0.001 A 
ENDBRANCH   2  13
BRANCH  10  23
ATOM     23  C   UNL     1      26.636   3.545 -24.383  0.00  0.00    +0.280 C 
ATOM     24  O   UNL     1      25.942   4.167 -25.185  0.00  0.00    -0.267 OA
ATOM     25  N   UNL     1      26.431   2.199 -24.157  0.00  0.00    -0.305 N 
ATOM     26  H   UNL     1      27.007   1.739 -23.502  0.00  0.00    +0.149 HD
BRANCH  25  27
ATOM     27  C   UNL     1      25.401   1.425 -24.843  0.00  0.00    +0.140 C 
BRANCH  27  28
ATOM     28  C   UNL     1      24.529   0.662 -23.876  0.00  0.00    -0.030 A 
ATOM     29  C   UNL     1      24.768   0.746 -22.504  0.00  0.00    +0.007 A 
ATOM     30  C   UNL     1      23.455  -0.121 -24.300  0.00  0.00    +0.007 A 
ATOM     31  C   UNL     1      23.991   0.018 -21.589  0.00  0.00    +0.023 A 
ATOM     32  C   UNL     1      22.681  -0.852 -23.364  0.00  0.00    +0.023 A 
ATOM     33  C   UNL     1      22.938  -0.823 -21.988  0.00  0.00    +0.030 A 
BRANCH  33  34
ATOM     34  N   UNL     1      22.265  -1.610 -21.070  0.00  0.00    -0.333 N 
ATOM     35  C   UNL     1      21.368  -2.712 -21.476  0.00  0.00    +0.086 C 
ATOM     36  C   UNL     1      22.629  -1.662 -19.643  0.00  0.00    +0.086 C 
ATOM     37  C   UNL     1      20.113  -2.743 -20.570  0.00  0.00    -0.060 C 
ATOM     38  C   UNL     1      21.348  -1.733 -18.770  0.00  0.00    -0.060 C 
ATOM     39  N   UNL     1      20.458  -2.858 -19.134  0.00  0.00    +0.380 N 
ATOM     40  C   UNL     1      19.251  -2.854 -18.310  0.00  0.00    -0.096 C 
ATOM     41  H   UNL     1      20.939  -3.741 -18.967  0.00  0.00    -0.082 HD
ENDBRANCH  33  34
ENDBRANCH  27  28
ENDBRANCH  25  27
ENDBRANCH  10  23
TORSDOF 5
ENDMDL
MODEL 2
REMARK VINA RESULT:   -11.668      4.646     12.971
REMARK INTER + INTRA:         -15.095
REMARK INTER:                 -14.511
REMARK INTRA:                  -0.584
REMARK UNBOUND:                -0.017
REMARK  Name = CTX-1020903
REMARK  8 active torsions:
REMARK  status: ('A' for Active; 'I' for Inactive)
REMARK    1  A    between atoms: C_2  and  C_4
REMARK    2  A    between atoms: C_8  and  C_13
REMARK    3  A    between atoms: C_18  and  C_22
REMARK    4  A    between atoms: N_19  and  C_23
REMARK    5  A    between atoms: N_25  and  C_26
REMARK    6  A    between atoms: C_26  and  C_27
REMARK    7  A    between atoms: C_32  and  N_33
REMARK    8  A    between atoms: N_38  and  C_39
REMARK                            x       y       z     vdW  Elec       q    Type
REMARK                         _______ _______ _______ _____ _____    ______ ____
ROOT
ATOM      1  O   UNL     1      18.605  -0.476 -16.613  0.00  0.00    -0.267 OA
ATOM      2  C   UNL     1      19.434   0.381 -16.940  0.00  0.00    +0.283 C 
ATOM      3  N   UNL     1      19.940   0.333 -18.264  0.00  0.00    -0.289 N 
ATOM      4  C   UNL     1      20.753   1.335 -19.039  0.00  0.00    +0.165 C 
ATOM      5  C   UNL     1      19.519  -0.843 -19.062  0.00  0.00    +0.115 C 
ATOM      6  C   UNL     1      21.819   0.610 -19.884  0.00  0.00    +0.080 A 
ATOM      7  C   UNL     1      20.727  -1.677 -19.531  0.00  0.00    +0.074 C 
ATOM      8  N   UNL     1      22.905   1.152 -20.573  0.00  0.00    -0.226 NA
ATOM      9  C   UNL     1      21.742  -0.759 -20.072  0.00  0.00    +0.045 A 
ATOM     10  C   UNL     1      23.511   0.107 -21.161  0.00  0.00    +0.197 A 
ATOM     11  N   UNL     1      22.837  -1.075 -20.862  0.00  0.00    -0.327 N 
ATOM     12  C   UNL     1      23.260  -2.406 -21.239  0.00  0.00    +0.151 C 
ENDROOT
BRANCH   2  13
ATOM     13  C   UNL     1      19.848   1.347 -15.924  0.00  0.00    +0.194 A 
ATOM     14  O   UNL     1      18.866   2.312 -15.618  0.00  0.00    -0.450 OA
ATOM     15  C   UNL     1      20.657   1.396 -14.787  0.00  0.00    +0.008 A 
ATOM     16  C   UNL     1      19.352   3.056 -14.584  0.00  0.00    +0.136 A 
ATOM     17  C   UNL     1      20.710   2.814 -14.473  0.00  0.00    +0.024 A 
ATOM     18  C   UNL     1      20.408   0.354 -13.717  0.00  0.00    +0.048 C 
ATOM     19  C   UNL     1      18.623   3.692 -13.573  0.00  0.00    +0.047 A 
ATOM     20  C   UNL     1      21.438   3.698 -13.635  0.00  0.00    +0.012 A 
ATOM     21  C   UNL     1      19.355   4.740 -13.001  0.00  0.00    +0.004 A 
ATOM     22  C   UNL     1      20.743   4.697 -12.932  0.00  0.00    +0.001 A 
ENDBRANCH   2  13
BRANCH  10  23
ATOM     23  C   UNL     1      24.723   0.176 -21.995  0.00  0.00    +0.280 C 
ATOM     24  O   UNL     1      25.692  -0.558 -21.801  0.00  0.00    -0.267 OA
ATOM     25  N   UNL     1      24.731   1.111 -23.010  0.00  0.00    -0.305 N 
ATOM     26  H   UNL     1      23.936   1.682 -23.128  0.00  0.00    +0.149 HD
BRANCH  25  27
ATOM     27  C   UNL     1      25.860   1.294 -23.915  0.00  0.00    +0.140 C 
BRANCH  27  28
ATOM     28  C   UNL     1      26.834   2.328 -23.404  0.00  0.00    -0.030 A 
ATOM     29  C   UNL     1      26.857   3.603 -23.969  0.00  0.00    +0.007 A 
ATOM     30  C   UNL     1      27.713   2.068 -22.353  0.00  0.00    +0.007 A 
ATOM     31  C   UNL     1      27.778   4.570 -23.533  0.00  0.00    +0.023 A 
ATOM     32  C   UNL     1      28.637   3.053 -21.925  0.00  0.00    +0.023 A 
ATOM     33  C   UNL     1      28.714   4.321 -22.514  0.00  0.00    +0.030 A 
BRANCH  33  34
ATOM     34  N   UNL     1      29.677   5.258 -22.185  0.00  0.00    -0.333 N 
ATOM     35  C   UNL     1      29.589   6.671 -22.611  0.00  0.00    +0.086 C 
ATOM     36  C   UNL     1      30.672   5.041 -21.119  0.00  0.00    +0.086 C 
ATOM     37  C   UNL     1      30.986   7.195 -23.022  0.00  0.00    -0.060 C 
ATOM     38  C   UNL     1      32.047   5.614 -21.552  0.00  0.00    -0.060 C 
ATOM     39  N   UNL     1      31.986   7.041 -21.940  0.00  0.00    +0.380 N 
ATOM     40  C   UNL     1      33.297   7.518 -22.376  0.00  0.00    -0.096 C 
ATOM     41  H   UNL     1      31.709   7.602 -21.136  0.00  0.00    -0.082 HD
ENDBRANCH  33  34
ENDBRANCH  27  28
ENDBRANCH  25  27
ENDBRANCH  10  23
TORSDOF 5
ENDMDL
MODEL 3
REMARK VINA RESULT:   -11.352      4.629     13.993
REMARK INTER + INTRA:         -14.687
REMARK INTER:                 -13.806
REMARK INTRA:                  -0.880
REMARK UNBOUND:                -0.017
REMARK  Name = CTX-1020903
REMARK  8 active torsions:
REMARK  status: ('A' for Active; 'I' for Inactive)
REMARK    1  A    between atoms: C_2  and  C_4
REMARK    2  A    between atoms: C_8  and  C_13
REMARK    3  A    between atoms: C_18  and  C_22
REMARK    4  A    between atoms: N_19  and  C_23
REMARK    5  A    between atoms: N_25  and  C_26
REMARK    6  A    between atoms: C_26  and  C_27
REMARK    7  A    between atoms: C_32  and  N_33
REMARK    8  A    between atoms: N_38  and  C_39
REMARK                            x       y       z     vdW  Elec       q    Type
REMARK                         _______ _______ _______ _____ _____    ______ ____
ROOT
ATOM      1  O   UNL     1      19.110   0.834 -18.995  0.00  0.00    -0.267 OA
ATOM      2  C   UNL     1      19.813   1.105 -18.014  0.00  0.00    +0.283 C 
ATOM      3  N   UNL     1      21.035   1.784 -18.249  0.00  0.00    -0.289 N 
ATOM      4  C   UNL     1      21.982   2.456 -17.292  0.00  0.00    +0.165 C 
ATOM      5  C   UNL     1      21.398   1.962 -19.676  0.00  0.00    +0.115 C 
ATOM      6  C   UNL     1      23.441   2.181 -17.711  0.00  0.00    +0.080 A 
ATOM      7  C   UNL     1      22.746   1.295 -20.008  0.00  0.00    +0.074 C 
ATOM      8  N   UNL     1      24.615   2.427 -16.999  0.00  0.00    -0.226 NA
ATOM      9  C   UNL     1      23.715   1.659 -18.962  0.00  0.00    +0.045 A 
ATOM     10  C   UNL     1      25.611   2.027 -17.807  0.00  0.00    +0.197 A 
ATOM     11  N   UNL     1      25.096   1.538 -19.006  0.00  0.00    -0.327 N 
ATOM     12  C   UNL     1      25.865   0.930 -20.069  0.00  0.00    +0.151 C 
ENDROOT
BRANCH   2  13
ATOM     13  C   UNL     1      19.341   0.667 -16.702  0.00  0.00    +0.194 A 
ATOM     14  O   UNL     1      20.290  -0.080 -15.972  0.00  0.00    -0.450 OA
ATOM     15  C   UNL     1      18.491   1.112 -15.687  0.00  0.00    +0.008 A 
ATOM     16  C   UNL     1      19.751  -0.309 -14.741  0.00  0.00    +0.136 A 
ATOM     17  C   UNL     1      18.395  -0.036 -14.801  0.00  0.00    +0.024 A 
ATOM     18  C   UNL     1      18.725   2.510 -15.153  0.00  0.00    +0.048 C 
ATOM     19  C   UNL     1      20.429  -0.458 -13.527  0.00  0.00    +0.047 A 
ATOM     20  C   UNL     1      17.618  -0.475 -13.698  0.00  0.00    +0.012 A 
ATOM     21  C   UNL     1      19.653  -1.157 -12.593  0.00  0.00    +0.004 A 
ATOM     22  C   UNL     1      18.265  -1.082 -12.607  0.00  0.00    +0.001 A 
ENDBRANCH   2  13
BRANCH  10  23
ATOM     23  C   UNL     1      27.048   2.076 -17.487  0.00  0.00    +0.280 C 
ATOM     24  O   UNL     1      27.690   1.064 -17.207  0.00  0.00    -0.267 OA
ATOM     25  N   UNL     1      27.650   3.318 -17.509  0.00  0.00    -0.305 N 
ATOM     26  H   UNL     1      27.100   4.103 -17.734  0.00  0.00    +0.149 HD
BRANCH  25  27
ATOM     27  C   UNL     1      29.065   3.521 -17.214  0.00  0.00    +0.140 C 
BRANCH  27  28
ATOM     28  C   UNL     1      29.762   4.305 -18.300  0.00  0.00    -0.030 A 
ATOM     29  C   UNL     1      30.410   5.500 -17.991  0.00  0.00    +0.007 A 
ATOM     30  C   UNL     1      29.810   3.865 -19.623  0.00  0.00    +0.007 A 
ATOM     31  C   UNL     1      31.035   6.264 -18.990  0.00  0.00    +0.023 A 
ATOM     32  C   UNL     1      30.442   4.646 -20.621  0.00  0.00    +0.023 A 
ATOM     33  C   UNL     1      31.052   5.876 -20.341  0.00  0.00    +0.030 A 
BRANCH  33  34
ATOM     34  N   UNL     1      31.581   6.704 -21.315  0.00  0.00    -0.333 N 
ATOM     35  C   UNL     1      30.741   7.605 -22.132  0.00  0.00    +0.086 C 
ATOM     36  C   UNL     1      33.017   7.026 -21.398  0.00  0.00    +0.086 C 
ATOM     37  C   UNL     1      31.237   7.618 -23.598  0.00  0.00    -0.060 C 
ATOM     38  C   UNL     1      33.467   7.068 -22.882  0.00  0.00    -0.060 C 
ATOM     39  N   UNL     1      32.664   7.999 -23.706  0.00  0.00    +0.380 N 
ATOM     40  C   UNL     1      33.103   7.971 -25.100  0.00  0.00    -0.096 C 
ATOM     41  H   UNL     1      32.791   8.952 -23.366  0.00  0.00    -0.082 HD
ENDBRANCH  33  34
ENDBRANCH  27  28
ENDBRANCH  25  27
ENDBRANCH  10  23
TORSDOF 5
ENDMDL
MODEL 4
REMARK VINA RESULT:   -10.791      4.838     13.436
REMARK INTER + INTRA:         -13.962
REMARK INTER:                 -13.049
REMARK INTRA:                  -0.913
REMARK UNBOUND:                -0.017
REMARK  Name = CTX-1020903
REMARK  8 active torsions:
REMARK  status: ('A' for Active; 'I' for Inactive)
REMARK    1  A    between atoms: C_2  and  C_4
REMARK    2  A    between atoms: C_8  and  C_13
REMARK    3  A    between atoms: C_18  and  C_22
REMARK    4  A    between atoms: N_19  and  C_23
REMARK    5  A    between atoms: N_25  and  C_26
REMARK    6  A    between atoms: C_26  and  C_27
REMARK    7  A    between atoms: C_32  and  N_33
REMARK    8  A    between atoms: N_38  and  C_39
REMARK                            x       y       z     vdW  Elec       q    Type
REMARK                         _______ _______ _______ _____ _____    ______ ____
ROOT
ATOM      1  O   UNL     1      17.843  -0.168 -19.376  0.00  0.00    -0.267 OA
ATOM      2  C   UNL     1      18.913  -0.569 -18.903  0.00  0.00    +0.283 C 
ATOM      3  N   UNL     1      19.370   0.041 -17.707  0.00  0.00    -0.289 N 
ATOM      4  C   UNL     1      20.474  -0.359 -16.764  0.00  0.00    +0.165 C 
ATOM      5  C   UNL     1      18.574   1.201 -17.241  0.00  0.00    +0.115 C 
ATOM      6  C   UNL     1      21.230   0.893 -16.275  0.00  0.00    +0.080 A 
ATOM      7  C   UNL     1      19.427   2.481 -17.155  0.00  0.00    +0.074 C 
ATOM      8  N   UNL     1      22.434   0.968 -15.573  0.00  0.00    -0.226 NA
ATOM      9  C   UNL     1      20.693   2.151 -16.480  0.00  0.00    +0.045 A 
ATOM     10  C   UNL     1      22.649   2.279 -15.374  0.00  0.00    +0.197 A 
ATOM     11  N   UNL     1      21.614   3.029 -15.929  0.00  0.00    -0.327 N 
ATOM     12  C   UNL     1      21.560   4.473 -15.994  0.00  0.00    +0.151 C 
ENDROOT
BRANCH   2  13
ATOM     13  C   UNL     1      19.631  -1.608 -19.636  0.00  0.00    +0.194 A 
ATOM     14  O   UNL     1      20.840  -1.169 -20.215  0.00  0.00    -0.450 OA
ATOM     15  C   UNL     1      19.829  -2.990 -19.581  0.00  0.00    +0.008 A 
ATOM     16  C   UNL     1      21.441  -2.267 -20.755  0.00  0.00    +0.136 A 
ATOM     17  C   UNL     1      20.505  -3.283 -20.834  0.00  0.00    +0.024 A 
ATOM     18  C   UNL     1      20.310  -3.566 -18.265  0.00  0.00    +0.048 C 
ATOM     19  C   UNL     1      22.812  -2.503 -20.903  0.00  0.00    +0.047 A 
ATOM     20  C   UNL     1      20.867  -4.410 -21.617  0.00  0.00    +0.012 A 
ATOM     21  C   UNL     1      23.060  -3.446 -21.909  0.00  0.00    +0.004 A 
ATOM     22  C   UNL     1      22.149  -4.456 -22.192  0.00  0.00    +0.001 A 
ENDBRANCH   2  13
BRANCH  10  23
ATOM     23  C   UNL     1      23.811   2.863 -14.684  0.00  0.00    +0.280 C 
ATOM     24  O   UNL     1      23.763   3.214 -13.506  0.00  0.00    -0.267 OA
ATOM     25  N   UNL     1      24.968   3.006 -15.423  0.00  0.00    -0.305 N 
ATOM     26  H   UNL     1      24.963   2.716 -16.365  0.00  0.00    +0.149 HD
BRANCH  25  27
ATOM     27  C   UNL     1      26.199   3.568 -14.874  0.00  0.00    +0.140 C 
BRANCH  27  28
ATOM     28  C   UNL     1      27.221   3.849 -15.949  0.00  0.00    -0.030 A 
ATOM     29  C   UNL     1      27.731   5.137 -16.106  0.00  0.00    +0.007 A 
ATOM     30  C   UNL     1      27.706   2.851 -16.794  0.00  0.00    +0.007 A 
ATOM     31  C   UNL     1      28.657   5.429 -17.121  0.00  0.00    +0.023 A 
ATOM     32  C   UNL     1      28.639   3.161 -17.815  0.00  0.00    +0.023 A 
ATOM     33  C   UNL     1      29.123   4.458 -18.024  0.00  0.00    +0.030 A 
BRANCH  33  34
ATOM     34  N   UNL     1      29.950   4.803 -19.079  0.00  0.00    -0.333 N 
ATOM     35  C   UNL     1      30.917   5.917 -18.998  0.00  0.00    +0.086 C 
ATOM     36  C   UNL     1      30.197   3.909 -20.225  0.00  0.00    +0.086 C 
ATOM     37  C   UNL     1      30.946   6.700 -20.333  0.00  0.00    -0.060 C 
ATOM     38  C   UNL     1      30.258   4.734 -21.538  0.00  0.00    -0.060 C 
ATOM     39  N   UNL     1      31.254   5.828 -21.490  0.00  0.00    +0.380 N 
ATOM     40  C   UNL     1      31.243   6.596 -22.734  0.00  0.00    -0.096 C 
ATOM     41  H   UNL     1      32.188   5.435 -21.383  0.00  0.00    -0.082 HD
ENDBRANCH  33  34
ENDBRANCH  27  28
ENDBRANCH  25  27
ENDBRANCH  10  23
TORSDOF 5
ENDMDL
MODEL 5
REMARK VINA RESULT:   -10.229      3.809      5.228
REMARK INTER + INTRA:         -13.236
REMARK INTER:                 -12.780
REMARK INTRA:                  -0.455
REMARK UNBOUND:                -0.017
REMARK  Name = CTX-1020903
REMARK  8 active torsions:
REMARK  status: ('A' for Active; 'I' for Inactive)
REMARK    1  A    between atoms: C_2  and  C_4
REMARK    2  A    between atoms: C_8  and  C_13
REMARK    3  A    between atoms: C_18  and  C_22
REMARK    4  A    between atoms: N_19  and  C_23
REMARK    5  A    between atoms: N_25  and  C_26
REMARK    6  A    between atoms: C_26  and  C_27
REMARK    7  A    between atoms: C_32  and  N_33
REMARK    8  A    between atoms: N_38  and  C_39
REMARK                            x       y       z     vdW  Elec       q    Type
REMARK                         _______ _______ _______ _____ _____    ______ ____
ROOT
ATOM      1  O   UNL     1      32.827   6.085 -18.278  0.00  0.00    -0.267 OA
ATOM      2  C   UNL     1      31.650   6.151 -18.654  0.00  0.00    +0.283 C 
ATOM      3  N   UNL     1      30.639   5.907 -17.691  0.00  0.00    -0.289 N 
ATOM      4  C   UNL     1      29.153   6.135 -17.752  0.00  0.00    +0.165 C 
ATOM      5  C   UNL     1      31.122   5.454 -16.364  0.00  0.00    +0.115 C 
ATOM      6  C   UNL     1      28.410   4.970 -17.067  0.00  0.00    +0.080 A 
ATOM      7  C   UNL     1      30.551   4.073 -15.991  0.00  0.00    +0.074 C 
ATOM      8  N   UNL     1      27.047   4.672 -17.084  0.00  0.00    -0.226 NA
ATOM      9  C   UNL     1      29.107   4.074 -16.277  0.00  0.00    +0.045 A 
ATOM     10  C   UNL     1      26.914   3.573 -16.323  0.00  0.00    +0.197 A 
ATOM     11  N   UNL     1      28.153   3.173 -15.829  0.00  0.00    -0.327 N 
ATOM     12  C   UNL     1      28.408   1.976 -15.058  0.00  0.00    +0.151 C 
ENDROOT
BRANCH   2  13
ATOM     13  C   UNL     1      31.406   6.436 -20.066  0.00  0.00    +0.194 A 
ATOM     14  O   UNL     1      32.517   6.982 -20.742  0.00  0.00    -0.450 OA
ATOM     15  C   UNL     1      30.651   5.929 -21.127  0.00  0.00    +0.008 A 
ATOM     16  C   UNL     1      32.172   7.079 -22.057  0.00  0.00    +0.136 A 
ATOM     17  C   UNL     1      30.799   6.942 -22.159  0.00  0.00    +0.024 A 
ATOM     18  C   UNL     1      30.799   4.453 -21.435  0.00  0.00    +0.048 C 
ATOM     19  C   UNL     1      33.016   6.989 -23.169  0.00  0.00    +0.047 A 
ATOM     20  C   UNL     1      30.226   7.286 -23.411  0.00  0.00    +0.012 A 
ATOM     21  C   UNL     1      32.450   7.615 -24.288  0.00  0.00    +0.004 A 
ATOM     22  C   UNL     1      31.073   7.669 -24.466  0.00  0.00    +0.001 A 
ENDBRANCH   2  13
BRANCH  10  23
ATOM     23  C   UNL     1      25.650   2.867 -16.049  0.00  0.00    +0.280 C 
ATOM     24  O   UNL     1      25.529   2.087 -15.106  0.00  0.00    -0.267 OA
ATOM     25  N   UNL     1      24.599   3.115 -16.908  0.00  0.00    -0.305 N 
ATOM     26  H   UNL     1      24.739   3.744 -17.654  0.00  0.00    +0.149 HD
BRANCH  25  27
ATOM     27  C   UNL     1      23.288   2.490 -16.762  0.00  0.00    +0.140 C 
BRANCH  27  28
ATOM     28  C   UNL     1      23.033   1.453 -17.829  0.00  0.00    -0.030 A 
ATOM     29  C   UNL     1      21.739   0.986 -18.053  0.00  0.00    +0.007 A 
ATOM     30  C   UNL     1      24.054   0.949 -18.636  0.00  0.00    +0.007 A 
ATOM     31  C   UNL     1      21.484  -0.004 -19.017  0.00  0.00    +0.023 A 
ATOM     32  C   UNL     1      23.782  -0.050 -19.603  0.00  0.00    +0.023 A 
ATOM     33  C   UNL     1      22.498  -0.572 -19.807  0.00  0.00    +0.030 A 
BRANCH  33  34
ATOM     34  N   UNL     1      22.229  -1.621 -20.669  0.00  0.00    -0.333 N 
ATOM     35  C   UNL     1      20.852  -2.035 -21.009  0.00  0.00    +0.086 C 
ATOM     36  C   UNL     1      23.241  -2.186 -21.579  0.00  0.00    +0.086 C 
ATOM     37  C   UNL     1      20.758  -3.578 -21.076  0.00  0.00    -0.060 C 
ATOM     38  C   UNL     1      23.089  -3.728 -21.650  0.00  0.00    -0.060 C 
ATOM     39  N   UNL     1      21.726  -4.161 -22.033  0.00  0.00    +0.380 N 
ATOM     40  C   UNL     1      21.627  -5.619 -22.046  0.00  0.00    -0.096 C 
ATOM     41  H   UNL     1      21.516  -3.833 -22.975  0.00  0.00    -0.082 HD
ENDBRANCH  33  34
ENDBRANCH  27  28
ENDBRANCH  25  27
ENDBRANCH  10  23
TORSDOF 5
ENDMDL
