MODEL 1
REMARK VINA RESULT:   -11.913      0.000      0.000
REMARK INTER + INTRA:         -15.650
REMARK INTER:                 -15.396
REMARK INTRA:                  -0.254
REMARK UNBOUND:                -0.254
REMARK  Name = CTX-1020749
REMARK  6 active torsions:
REMARK  status: ('A' for Active; 'I' for Inactive)
REMARK    1  A    between atoms: C_3  and  C_6
REMARK    2  A    between atoms: C_21  and  C_22
REMARK    3  A    between atoms: N_24  and  C_25
REMARK    4  A    between atoms: C_25  and  C_26
REMARK    5  A    between atoms: C_31  and  N_32
REMARK    6  A    between atoms: N_37  and  C_38
REMARK                            x       y       z     vdW  Elec       q    Type
REMARK                         _______ _______ _______ _____ _____    ______ ____
ROOT
ATOM      1  C   UNL     1      22.811   0.687 -19.961  0.00  0.00    +0.284 C 
ATOM      2  O   UNL     1      22.375  -0.372 -20.229  0.00  0.00    -0.267 OA
ATOM      3  N   UNL     1      23.948   1.232 -20.753  0.00  0.00    -0.290 N 
ATOM      4  C   UNL     1      24.476   0.996 -22.244  0.00  0.00    +0.144 C 
ATOM      5  C   UNL     1      24.919   1.527 -19.716  0.00  0.00    +0.113 C 
ATOM      6  C   UNL     1      25.895   1.775 -22.497  0.00  0.00    -0.019 A 
ATOM      7  C   UNL     1      26.358   1.398 -20.089  0.00  0.00    +0.062 C 
ATOM      8  C   UNL     1      26.799   1.803 -21.460  0.00  0.00    -0.003 A 
ATOM      9  C   UNL     1      26.550   2.652 -23.535  0.00  0.00    +0.026 A 
ATOM     10  S   UNL     1      28.317   2.470 -21.702  0.00  0.00    -0.088 S 
ATOM     11  C   UNL     1      27.668   3.360 -23.005  0.00  0.00    +0.074 A 
ENDROOT
BRANCH   1  14
ATOM     12 CL   UNL     1      20.137   3.028 -19.375  0.00  0.00    -0.079 Cl
ATOM     13  C   UNL     1      21.449   2.459 -18.434  0.00  0.00    +0.099 A 
ATOM     14  C   UNL     1      22.457   1.565 -18.752  0.00  0.00    +0.209 A 
ATOM     15  C   UNL     1      21.553   2.798 -17.016  0.00  0.00    +0.039 A 
ATOM     16  O   UNL     1      23.192   1.349 -17.602  0.00  0.00    -0.449 OA
ATOM     17  C   UNL     1      22.656   2.078 -16.580  0.00  0.00    +0.137 A 
ATOM     18  C   UNL     1      20.858   3.578 -16.033  0.00  0.00    +0.013 A 
ATOM     19  C   UNL     1      23.120   2.090 -15.258  0.00  0.00    +0.047 A 
ATOM     20  C   UNL     1      21.323   3.616 -14.707  0.00  0.00    +0.001 A 
ATOM     21  C   UNL     1      22.439   2.873 -14.336  0.00  0.00    +0.004 A 
ENDBRANCH   1  14
BRANCH  11  22
ATOM     22  C   UNL     1      28.244   4.719 -23.129  0.00  0.00    +0.251 C 
ATOM     23  O   UNL     1      27.554   5.678 -23.588  0.00  0.00    -0.270 OA
ATOM     24  N   UNL     1      29.515   4.896 -22.609  0.00  0.00    -0.307 N 
ATOM     25  H   UNL     1      30.121   4.123 -22.563  0.00  0.00    +0.149 HD
BRANCH  24  26
ATOM     26  C   UNL     1      29.989   6.206 -22.121  0.00  0.00    +0.139 C 
BRANCH  26  27
ATOM     27  C   UNL     1      31.108   6.765 -22.977  0.00  0.00    -0.030 A 
ATOM     28  C   UNL     1      30.862   7.208 -24.281  0.00  0.00    +0.007 A 
ATOM     29  C   UNL     1      32.424   6.852 -22.509  0.00  0.00    +0.007 A 
ATOM     30  C   UNL     1      31.902   7.684 -25.093  0.00  0.00    +0.023 A 
ATOM     31  C   UNL     1      33.463   7.333 -23.334  0.00  0.00    +0.023 A 
ATOM     32  C   UNL     1      33.231   7.740 -24.659  0.00  0.00    +0.030 A 
BRANCH  32  33
ATOM     33  N   UNL     1      34.251   8.109 -25.523  0.00  0.00    -0.333 N 
ATOM     34  C   UNL     1      34.079   8.099 -26.988  0.00  0.00    +0.086 C 
ATOM     35  C   UNL     1      35.443   8.844 -25.069  0.00  0.00    +0.086 C 
ATOM     36  C   UNL     1      35.369   7.581 -27.670  0.00  0.00    -0.060 C 
ATOM     37  C   UNL     1      36.702   8.329 -25.819  0.00  0.00    -0.060 C 
ATOM     38  N   UNL     1      36.552   8.384 -27.291  0.00  0.00    +0.380 N 
ATOM     39  C   UNL     1      37.754   7.898 -27.962  0.00  0.00    -0.096 C 
ATOM     40  H   UNL     1      36.420   9.351 -27.586  0.00  0.00    -0.082 HD
ENDBRANCH  32  33
ENDBRANCH  26  27
ENDBRANCH  24  26
ENDBRANCH  11  22
TORSDOF 5
ENDMDL
MODEL 2
REMARK VINA RESULT:   -11.647      6.235     10.042
REMARK INTER + INTRA:         -15.306
REMARK INTER:                 -13.940
REMARK INTRA:                  -1.366
REMARK UNBOUND:                -0.254
REMARK  Name = CTX-1020749
REMARK  6 active torsions:
REMARK  status: ('A' for Active; 'I' for Inactive)
REMARK    1  A    between atoms: C_3  and  C_6
REMARK    2  A    between atoms: C_21  and  C_22
REMARK    3  A    between atoms: N_24  and  C_25
REMARK    4  A    between atoms: C_25  and  C_26
REMARK    5  A    between atoms: C_31  and  N_32
REMARK    6  A    between atoms: N_37  and  C_38
REMARK                            x       y       z     vdW  Elec       q    Type
REMARK                         _______ _______ _______ _____ _____    ______ ____
ROOT
ATOM      1  C   UNL     1      21.723   3.580 -15.467  0.00  0.00    +0.284 C 
ATOM      2  O   UNL     1      21.195   4.431 -14.850  0.00  0.00    -0.267 OA
ATOM      3  N   UNL     1      20.893   2.546 -16.145  0.00  0.00    -0.290 N 
ATOM      4  C   UNL     1      19.396   2.516 -16.706  0.00  0.00    +0.144 C 
ATOM      5  C   UNL     1      21.456   1.318 -15.614  0.00  0.00    +0.113 C 
ATOM      6  C   UNL     1      18.986   1.014 -17.213  0.00  0.00    -0.019 A 
ATOM      7  C   UNL     1      20.520   0.166 -15.458  0.00  0.00    +0.062 C 
ATOM      8  C   UNL     1      19.451  -0.054 -16.480  0.00  0.00    -0.003 A 
ATOM      9  C   UNL     1      18.311   0.346 -18.386  0.00  0.00    +0.026 A 
ATOM     10  S   UNL     1      18.957  -1.606 -16.873  0.00  0.00    -0.088 S 
ATOM     11  C   UNL     1      18.607  -1.048 -18.447  0.00  0.00    +0.074 A 
ENDROOT
BRANCH   1  14
ATOM     12 CL   UNL     1      24.112   2.507 -12.994  0.00  0.00    -0.079 Cl
ATOM     13  C   UNL     1      24.203   2.843 -14.671  0.00  0.00    +0.099 A 
ATOM     14  C   UNL     1      23.227   3.280 -15.550  0.00  0.00    +0.209 A 
ATOM     15  C   UNL     1      25.413   2.534 -15.430  0.00  0.00    +0.039 A 
ATOM     16  O   UNL     1      23.781   3.274 -16.815  0.00  0.00    -0.449 OA
ATOM     17  C   UNL     1      25.071   2.833 -16.741  0.00  0.00    +0.137 A 
ATOM     18  C   UNL     1      26.730   2.012 -15.206  0.00  0.00    +0.013 A 
ATOM     19  C   UNL     1      25.939   2.669 -17.828  0.00  0.00    +0.047 A 
ATOM     20  C   UNL     1      27.620   1.861 -16.284  0.00  0.00    +0.001 A 
ATOM     21  C   UNL     1      27.216   2.185 -17.574  0.00  0.00    +0.004 A 
ENDBRANCH   1  14
BRANCH  11  22
ATOM     22  C   UNL     1      18.909  -2.043 -19.502  0.00  0.00    +0.251 C 
ATOM     23  O   UNL     1      18.223  -2.092 -20.565  0.00  0.00    -0.270 OA
ATOM     24  N   UNL     1      20.041  -2.816 -19.308  0.00  0.00    -0.307 N 
ATOM     25  H   UNL     1      20.350  -2.985 -18.389  0.00  0.00    +0.149 HD
BRANCH  24  26
ATOM     26  C   UNL     1      20.800  -3.394 -20.433  0.00  0.00    +0.139 C 
BRANCH  26  27
ATOM     27  C   UNL     1      21.900  -2.470 -20.918  0.00  0.00    -0.030 A 
ATOM     28  C   UNL     1      22.732  -1.808 -20.009  0.00  0.00    +0.007 A 
ATOM     29  C   UNL     1      22.120  -2.232 -22.279  0.00  0.00    +0.007 A 
ATOM     30  C   UNL     1      23.722  -0.916 -20.449  0.00  0.00    +0.023 A 
ATOM     31  C   UNL     1      23.118  -1.334 -22.712  0.00  0.00    +0.023 A 
ATOM     32  C   UNL     1      23.931  -0.633 -21.804  0.00  0.00    +0.030 A 
BRANCH  32  33
ATOM     33  N   UNL     1      24.839   0.337 -22.200  0.00  0.00    -0.333 N 
ATOM     34  C   UNL     1      25.708   1.039 -21.235  0.00  0.00    +0.086 C 
ATOM     35  C   UNL     1      25.250   0.509 -23.603  0.00  0.00    +0.086 C 
ATOM     36  C   UNL     1      25.831   2.533 -21.620  0.00  0.00    -0.060 C 
ATOM     37  C   UNL     1      25.414   2.019 -23.928  0.00  0.00    -0.060 C 
ATOM     38  N   UNL     1      26.340   2.706 -22.999  0.00  0.00    +0.380 N 
ATOM     39  C   UNL     1      26.473   4.119 -23.337  0.00  0.00    -0.096 C 
ATOM     40  H   UNL     1      27.270   2.294 -23.076  0.00  0.00    -0.082 HD
ENDBRANCH  32  33
ENDBRANCH  26  27
ENDBRANCH  24  26
ENDBRANCH  11  22
TORSDOF 5
ENDMDL
MODEL 3
REMARK VINA RESULT:   -11.501      7.595     10.946
REMARK INTER + INTRA:         -15.117
REMARK INTER:                 -14.122
REMARK INTRA:                  -0.995
REMARK UNBOUND:                -0.254
REMARK  Name = CTX-1020749
REMARK  6 active torsions:
REMARK  status: ('A' for Active; 'I' for Inactive)
REMARK    1  A    between atoms: C_3  and  C_6
REMARK    2  A    between atoms: C_21  and  C_22
REMARK    3  A    between atoms: N_24  and  C_25
REMARK    4  A    between atoms: C_25  and  C_26
REMARK    5  A    between atoms: C_31  and  N_32
REMARK    6  A    between atoms: N_37  and  C_38
REMARK                            x       y       z     vdW  Elec       q    Type
REMARK                         _______ _______ _______ _____ _____    ______ ____
ROOT
ATOM      1  C   UNL     1      21.340  -2.716 -20.243  0.00  0.00    +0.284 C 
ATOM      2  O   UNL     1      21.112  -3.823 -20.571  0.00  0.00    -0.267 OA
ATOM      3  N   UNL     1      20.631  -2.141 -19.066  0.00  0.00    -0.290 N 
ATOM      4  C   UNL     1      19.963  -2.770 -17.757  0.00  0.00    +0.144 C 
ATOM      5  C   UNL     1      20.047  -0.938 -19.629  0.00  0.00    +0.113 C 
ATOM      6  C   UNL     1      19.181  -1.623 -16.886  0.00  0.00    -0.019 A 
ATOM      7  C   UNL     1      18.748  -0.489 -19.049  0.00  0.00    +0.062 C 
ATOM      8  C   UNL     1      18.508  -0.645 -17.581  0.00  0.00    -0.003 A 
ATOM      9  C   UNL     1      19.039  -1.173 -15.453  0.00  0.00    +0.026 A 
ATOM     10  S   UNL     1      17.583   0.476 -16.747  0.00  0.00    -0.088 S 
ATOM     11  C   UNL     1      18.523   0.153 -15.360  0.00  0.00    +0.074 A 
ENDROOT
BRANCH   1  14
ATOM     12 CL   UNL     1      24.005  -0.553 -19.153  0.00  0.00    -0.079 Cl
ATOM     13  C   UNL     1      23.240  -0.835 -20.659  0.00  0.00    +0.099 A 
ATOM     14  C   UNL     1      22.193  -1.679 -20.986  0.00  0.00    +0.209 A 
ATOM     15  C   UNL     1      23.772  -0.249 -21.888  0.00  0.00    +0.039 A 
ATOM     16  O   UNL     1      22.038  -1.629 -22.359  0.00  0.00    -0.449 OA
ATOM     17  C   UNL     1      22.972  -0.785 -22.888  0.00  0.00    +0.137 A 
ATOM     18  C   UNL     1      24.832   0.623 -22.303  0.00  0.00    +0.013 A 
ATOM     19  C   UNL     1      23.138  -0.505 -24.250  0.00  0.00    +0.047 A 
ATOM     20  C   UNL     1      24.999   0.930 -23.666  0.00  0.00    +0.001 A 
ATOM     21  C   UNL     1      24.158   0.362 -24.617  0.00  0.00    +0.004 A 
ENDBRANCH   1  14
BRANCH  11  22
ATOM     22  C   UNL     1      18.771   1.353 -14.529  0.00  0.00    +0.251 C 
ATOM     23  O   UNL     1      18.296   1.443 -13.358  0.00  0.00    -0.270 OA
ATOM     24  N   UNL     1      19.639   2.295 -15.056  0.00  0.00    -0.307 N 
ATOM     25  H   UNL     1      19.729   2.363 -16.034  0.00  0.00    +0.149 HD
BRANCH  24  26
ATOM     26  C   UNL     1      20.433   3.198 -14.201  0.00  0.00    +0.139 C 
BRANCH  26  27
ATOM     27  C   UNL     1      21.902   3.200 -14.578  0.00  0.00    -0.030 A 
ATOM     28  C   UNL     1      22.313   3.586 -15.857  0.00  0.00    +0.007 A 
ATOM     29  C   UNL     1      22.897   2.808 -13.676  0.00  0.00    +0.007 A 
ATOM     30  C   UNL     1      23.666   3.547 -16.227  0.00  0.00    +0.023 A 
ATOM     31  C   UNL     1      24.255   2.772 -14.057  0.00  0.00    +0.023 A 
ATOM     32  C   UNL     1      24.672   3.119 -15.354  0.00  0.00    +0.030 A 
BRANCH  32  33
ATOM     33  N   UNL     1      25.983   2.984 -15.785  0.00  0.00    -0.333 N 
ATOM     34  C   UNL     1      26.745   1.735 -15.599  0.00  0.00    +0.086 C 
ATOM     35  C   UNL     1      26.602   3.921 -16.737  0.00  0.00    +0.086 C 
ATOM     36  C   UNL     1      28.210   2.057 -15.218  0.00  0.00    -0.060 C 
ATOM     37  C   UNL     1      28.085   4.172 -16.347  0.00  0.00    -0.060 C 
ATOM     38  N   UNL     1      28.864   2.919 -16.227  0.00  0.00    +0.380 N 
ATOM     39  C   UNL     1      30.251   3.193 -15.866  0.00  0.00    -0.096 C 
ATOM     40  H   UNL     1      28.882   2.440 -17.128  0.00  0.00    -0.082 HD
ENDBRANCH  32  33
ENDBRANCH  26  27
ENDBRANCH  24  26
ENDBRANCH  11  22
TORSDOF 5
ENDMDL
MODEL 4
REMARK VINA RESULT:   -11.438      7.528     10.843
REMARK INTER + INTRA:         -15.035
REMARK INTER:                 -13.875
REMARK INTRA:                  -1.161
REMARK UNBOUND:                -0.254
REMARK  Name = CTX-1020749
REMARK  6 active torsions:
REMARK  status: ('A' for Active; 'I' for Inactive)
REMARK    1  A    between atoms: C_3  and  C_6
REMARK    2  A    between atoms: C_21  and  C_22
REMARK    3  A    between atoms: N_24  and  C_25
REMARK    4  A    between atoms: C_25  and  C_26
REMARK    5  A    between atoms: C_31  and  N_32
REMARK    6  A    between atoms: N_37  and  C_38
REMARK                            x       y       z     vdW  Elec       q    Type
REMARK                         _______ _______ _______ _____ _____    ______ ____
ROOT
ATOM      1  C   UNL     1      21.534  -2.731 -19.953  0.00  0.00    +0.284 C 
ATOM      2  O   UNL     1      21.186  -3.741 -20.446  0.00  0.00    -0.267 OA
ATOM      3  N   UNL     1      20.685  -2.099 -18.905  0.00  0.00    -0.290 N 
ATOM      4  C   UNL     1      19.615  -2.657 -17.856  0.00  0.00    +0.144 C 
ATOM      5  C   UNL     1      20.493  -0.765 -19.443  0.00  0.00    +0.113 C 
ATOM      6  C   UNL     1      18.879  -1.432 -17.056  0.00  0.00    -0.019 A 
ATOM      7  C   UNL     1      19.201  -0.092 -19.118  0.00  0.00    +0.062 C 
ATOM      8  C   UNL     1      18.591  -0.291 -17.767  0.00  0.00    -0.003 A 
ATOM      9  C   UNL     1      18.485  -1.058 -15.648  0.00  0.00    +0.026 A 
ATOM     10  S   UNL     1      17.722   0.943 -17.038  0.00  0.00    -0.088 S 
ATOM     11  C   UNL     1      18.223   0.338 -15.522  0.00  0.00    +0.074 A 
ENDROOT
BRANCH   1  14
ATOM     12 CL   UNL     1      22.729  -1.639 -23.170  0.00  0.00    -0.079 Cl
ATOM     13  C   UNL     1      23.231  -1.363 -21.557  0.00  0.00    +0.099 A 
ATOM     14  C   UNL     1      22.721  -1.850 -20.365  0.00  0.00    +0.209 A 
ATOM     15  C   UNL     1      24.266  -0.376 -21.255  0.00  0.00    +0.039 A 
ATOM     16  O   UNL     1      23.405  -1.224 -19.340  0.00  0.00    -0.449 OA
ATOM     17  C   UNL     1      24.315  -0.355 -19.868  0.00  0.00    +0.137 A 
ATOM     18  C   UNL     1      25.140   0.526 -21.949  0.00  0.00    +0.013 A 
ATOM     19  C   UNL     1      25.171   0.474 -19.133  0.00  0.00    +0.047 A 
ATOM     20  C   UNL     1      26.019   1.351 -21.225  0.00  0.00    +0.001 A 
ATOM     21  C   UNL     1      26.021   1.319 -19.835  0.00  0.00    +0.004 A 
ENDBRANCH   1  14
BRANCH  11  22
ATOM     22  C   UNL     1      18.487   1.401 -14.526  0.00  0.00    +0.251 C 
ATOM     23  O   UNL     1      18.169   1.246 -13.310  0.00  0.00    -0.270 OA
ATOM     24  N   UNL     1      19.198   2.500 -14.976  0.00  0.00    -0.307 N 
ATOM     25  H   UNL     1      19.150   2.740 -15.930  0.00  0.00    +0.149 HD
BRANCH  24  26
ATOM     26  C   UNL     1      20.028   3.323 -14.075  0.00  0.00    +0.139 C 
BRANCH  26  27
ATOM     27  C   UNL     1      21.494   3.298 -14.464  0.00  0.00    -0.030 A 
ATOM     28  C   UNL     1      21.916   3.796 -15.701  0.00  0.00    +0.007 A 
ATOM     29  C   UNL     1      22.475   2.772 -13.617  0.00  0.00    +0.007 A 
ATOM     30  C   UNL     1      23.264   3.735 -16.086  0.00  0.00    +0.023 A 
ATOM     31  C   UNL     1      23.828   2.715 -14.012  0.00  0.00    +0.023 A 
ATOM     32  C   UNL     1      24.254   3.176 -15.271  0.00  0.00    +0.030 A 
BRANCH  32  33
ATOM     33  N   UNL     1      25.555   3.028 -15.726  0.00  0.00    -0.333 N 
ATOM     34  C   UNL     1      26.303   1.766 -15.567  0.00  0.00    +0.086 C 
ATOM     35  C   UNL     1      26.171   3.968 -16.677  0.00  0.00    +0.086 C 
ATOM     36  C   UNL     1      27.779   2.064 -15.208  0.00  0.00    -0.060 C 
ATOM     37  C   UNL     1      27.664   4.193 -16.310  0.00  0.00    -0.060 C 
ATOM     38  N   UNL     1      28.427   2.928 -16.218  0.00  0.00    +0.380 N 
ATOM     39  C   UNL     1      29.824   3.179 -15.878  0.00  0.00    -0.096 C 
ATOM     40  H   UNL     1      28.424   2.460 -17.125  0.00  0.00    -0.082 HD
ENDBRANCH  32  33
ENDBRANCH  26  27
ENDBRANCH  24  26
ENDBRANCH  11  22
TORSDOF 5
ENDMDL
MODEL 5
REMARK VINA RESULT:   -11.294      6.110      8.450
REMARK INTER + INTRA:         -14.849
REMARK INTER:                 -14.221
REMARK INTRA:                  -0.628
REMARK UNBOUND:                -0.254
REMARK  Name = CTX-1020749
REMARK  6 active torsions:
REMARK  status: ('A' for Active; 'I' for Inactive)
REMARK    1  A    between atoms: C_3  and  C_6
REMARK    2  A    between atoms: C_21  and  C_22
REMARK    3  A    between atoms: N_24  and  C_25
REMARK    4  A    between atoms: C_25  and  C_26
REMARK    5  A    between atoms: C_31  and  N_32
REMARK    6  A    between atoms: N_37  and  C_38
REMARK                            x       y       z     vdW  Elec       q    Type
REMARK                         _______ _______ _______ _____ _____    ______ ____
ROOT
ATOM      1  C   UNL     1      19.107  -1.119 -16.126  0.00  0.00    +0.284 C 
ATOM      2  O   UNL     1      18.195  -1.174 -15.385  0.00  0.00    -0.267 OA
ATOM      3  N   UNL     1      20.212  -0.156 -15.856  0.00  0.00    -0.290 N 
ATOM      4  C   UNL     1      20.787   0.530 -14.530  0.00  0.00    +0.144 C 
ATOM      5  C   UNL     1      20.268   0.590 -17.099  0.00  0.00    +0.113 C 
ATOM      6  C   UNL     1      21.932   1.643 -14.893  0.00  0.00    -0.019 A 
ATOM      7  C   UNL     1      20.686   2.019 -17.004  0.00  0.00    +0.062 C 
ATOM      8  C   UNL     1      21.740   2.410 -16.018  0.00  0.00    -0.003 A 
ATOM      9  C   UNL     1      23.306   2.063 -14.432  0.00  0.00    +0.026 A 
ATOM     10  S   UNL     1      22.810   3.653 -16.367  0.00  0.00    -0.088 S 
ATOM     11  C   UNL     1      23.977   2.855 -15.410  0.00  0.00    +0.074 A 
ENDROOT
BRANCH   1  14
ATOM     12 CL   UNL     1      17.759  -0.389 -19.385  0.00  0.00    -0.079 Cl
ATOM     13  C   UNL     1      18.802  -1.601 -18.771  0.00  0.00    +0.099 A 
ATOM     14  C   UNL     1      19.255  -1.822 -17.482  0.00  0.00    +0.209 A 
ATOM     15  C   UNL     1      19.489  -2.523 -19.675  0.00  0.00    +0.039 A 
ATOM     16  O   UNL     1      20.176  -2.851 -17.541  0.00  0.00    -0.449 OA
ATOM     17  C   UNL     1      20.312  -3.262 -18.836  0.00  0.00    +0.137 A 
ATOM     18  C   UNL     1      19.562  -2.814 -21.077  0.00  0.00    +0.013 A 
ATOM     19  C   UNL     1      21.176  -4.267 -19.285  0.00  0.00    +0.047 A 
ATOM     20  C   UNL     1      20.411  -3.835 -21.541  0.00  0.00    +0.001 A 
ATOM     21  C   UNL     1      21.206  -4.542 -20.646  0.00  0.00    +0.004 A 
ENDBRANCH   1  14
BRANCH  11  22
ATOM     22  C   UNL     1      25.353   2.977 -15.943  0.00  0.00    +0.251 C 
ATOM     23  O   UNL     1      26.355   2.953 -15.169  0.00  0.00    -0.270 OA
ATOM     24  N   UNL     1      25.477   2.996 -17.322  0.00  0.00    -0.307 N 
ATOM     25  H   UNL     1      24.723   3.327 -17.862  0.00  0.00    +0.149 HD
BRANCH  24  26
ATOM     26  C   UNL     1      26.699   2.535 -18.008  0.00  0.00    +0.139 C 
BRANCH  26  27
ATOM     27  C   UNL     1      26.488   2.359 -19.499  0.00  0.00    -0.030 A 
ATOM     28  C   UNL     1      27.560   2.460 -20.392  0.00  0.00    +0.007 A 
ATOM     29  C   UNL     1      25.224   2.104 -20.042  0.00  0.00    +0.007 A 
ATOM     30  C   UNL     1      27.364   2.345 -21.777  0.00  0.00    +0.023 A 
ATOM     31  C   UNL     1      25.037   1.989 -21.436  0.00  0.00    +0.023 A 
ATOM     32  C   UNL     1      26.103   2.131 -22.343  0.00  0.00    +0.030 A 
BRANCH  32  33
ATOM     33  N   UNL     1      25.926   2.134 -23.718  0.00  0.00    -0.333 N 
ATOM     34  C   UNL     1      25.301   1.004 -24.431  0.00  0.00    +0.086 C 
ATOM     35  C   UNL     1      26.029   3.361 -24.525  0.00  0.00    +0.086 C 
ATOM     36  C   UNL     1      26.033   0.751 -25.771  0.00  0.00    -0.060 C 
ATOM     37  C   UNL     1      26.719   3.049 -25.881  0.00  0.00    -0.060 C 
ATOM     38  N   UNL     1      26.049   1.959 -26.625  0.00  0.00    +0.380 N 
ATOM     39  C   UNL     1      26.720   1.698 -27.895  0.00  0.00    -0.096 C 
ATOM     40  H   UNL     1      25.092   2.235 -26.848  0.00  0.00    -0.082 HD
ENDBRANCH  32  33
ENDBRANCH  26  27
ENDBRANCH  24  26
ENDBRANCH  11  22
TORSDOF 5
ENDMDL
