REMARK  Name = CTX-1020753
REMARK  7 active torsions:
REMARK  status: ('A' for Active; 'I' for Inactive)
REMARK    1  A    between atoms: C_3  and  C_6
REMARK    2  A    between atoms: N_5  and  C_9
REMARK    3  A    between atoms: C_21  and  C_23
REMARK    4  A    between atoms: N_26  and  C_27
REMARK    5  A    between atoms: C_27  and  C_28
REMARK    6  A    between atoms: C_33  and  N_34
REMARK    7  A    between atoms: N_39  and  C_40
REMARK                            x       y       z     vdW  Elec       q    Type
REMARK                         _______ _______ _______ _____ _____    ______ ____
ROOT
ATOM      1  C   UNL     1       2.401  -3.148   0.361  0.00  0.00    +0.265 C 
ATOM      2  O   UNL     1       1.187  -3.059   0.587  0.00  0.00    -0.268 OA
ATOM      3  N   UNL     1       2.907  -4.585   0.452  0.00  0.00    -0.290 N 
ATOM      4  C   UNL     1       2.145  -5.926   0.787  0.00  0.00    +0.163 C 
ATOM      5  C   UNL     1       4.176  -4.767  -0.074  0.00  0.00    +0.113 C 
ATOM      6  C   UNL     1       2.892  -7.364   0.427  0.00  0.00    +0.063 A 
ATOM      7  C   UNL     1       4.972  -6.038  -0.141  0.00  0.00    +0.056 C 
ATOM      8  N   UNL     1       2.316  -8.647   0.601  0.00  0.00    -0.245 NA
ATOM      9  C   UNL     1       4.205  -7.296  -0.040  0.00  0.00    -0.023 A 
ATOM     10  C   UNL     1       3.106  -9.794   0.321  0.00  0.00    +0.126 A 
ATOM     11  C   UNL     1       4.942  -8.451  -0.340  0.00  0.00    +0.008 A 
ATOM     12  C   UNL     1       4.415  -9.707  -0.128  0.00  0.00    +0.033 A 
ENDROOT
BRANCH   1  15
ATOM     13 CL   UNL     1       1.319  -0.164   1.492  0.00  0.00    -0.081 Cl
ATOM     14  C   UNL     1       2.736  -0.424   0.548  0.00  0.00    +0.079 A 
ATOM     15  C   UNL     1       3.223  -1.690   0.065  0.00  0.00    +0.124 A 
ATOM     16  C   UNL     1       3.588   0.726   0.223  0.00  0.00    +0.019 A 
ATOM     17  N   UNL     1       4.376  -1.191  -0.692  0.00  0.00    -0.338 N 
ATOM     18  C   UNL     1       4.625   0.241  -0.567  0.00  0.00    +0.051 A 
ATOM     19  C   UNL     1       3.593   2.157   0.521  0.00  0.00    +0.011 A 
ATOM     20  C   UNL     1       5.247  -1.933  -1.576  0.00  0.00    +0.149 C 
ATOM     21  C   UNL     1       5.626   1.212  -1.056  0.00  0.00    +0.026 A 
ATOM     22  C   UNL     1       4.596   3.073   0.069  0.00  0.00    +0.001 A 
ATOM     23  C   UNL     1       5.610   2.595  -0.728  0.00  0.00    +0.002 A 
ENDBRANCH   1  15
BRANCH  10  24
ATOM     24  C   UNL     1       2.610 -11.311   0.429  0.00  0.00    +0.263 C 
ATOM     25  O   UNL     1       3.370 -12.260   0.214  0.00  0.00    -0.269 OA
ATOM     26  N   UNL     1       1.277 -11.534   0.746  0.00  0.00    -0.306 N 
ATOM     27  H   UNL     1       0.689 -10.770   0.947  0.00  0.00    +0.149 HD
BRANCH  26  28
ATOM     28  C   UNL     1       0.736 -12.895   0.786  0.00  0.00    +0.140 C 
BRANCH  28  29
ATOM     29  C   UNL     1      -0.401 -13.049   1.766  0.00  0.00    -0.030 A 
ATOM     30  C   UNL     1      -1.744 -12.897   1.381  0.00  0.00    +0.007 A 
ATOM     31  C   UNL     1      -0.130 -13.318   3.112  0.00  0.00    +0.007 A 
ATOM     32  C   UNL     1      -2.733 -12.844   2.342  0.00  0.00    +0.023 A 
ATOM     33  C   UNL     1      -1.157 -13.389   4.025  0.00  0.00    +0.023 A 
ATOM     34  C   UNL     1      -2.445 -13.122   3.673  0.00  0.00    +0.030 A 
BRANCH  34  35
ATOM     35  N   UNL     1      -3.470 -13.039   4.660  0.00  0.00    -0.333 N 
ATOM     36  C   UNL     1      -4.862 -13.387   4.333  0.00  0.00    +0.086 C 
ATOM     37  C   UNL     1      -3.171 -12.948   6.077  0.00  0.00    +0.086 C 
ATOM     38  C   UNL     1      -5.794 -12.391   5.039  0.00  0.00    -0.060 C 
ATOM     39  C   UNL     1      -4.142 -11.961   6.742  0.00  0.00    -0.060 C 
ATOM     40  N   UNL     1      -5.534 -12.359   6.493  0.00  0.00    +0.380 N 
ATOM     41  C   UNL     1      -6.469 -11.454   7.152  0.00  0.00    -0.096 C 
ATOM     42  H   UNL     1      -5.673 -13.291   6.882  0.00  0.00    -0.082 HD
ENDBRANCH  34  35
ENDBRANCH  28  29
ENDBRANCH  26  28
ENDBRANCH  10  24
TORSDOF 5
