REMARK  Name = CTX-1020903
REMARK  8 active torsions:
REMARK  status: ('A' for Active; 'I' for Inactive)
REMARK    1  A    between atoms: C_2  and  C_4
REMARK    2  A    between atoms: C_8  and  C_13
REMARK    3  A    between atoms: C_18  and  C_22
REMARK    4  A    between atoms: N_19  and  C_23
REMARK    5  A    between atoms: N_25  and  C_26
REMARK    6  A    between atoms: C_26  and  C_27
REMARK    7  A    between atoms: C_32  and  N_33
REMARK    8  A    between atoms: N_38  and  C_39
REMARK                            x       y       z     vdW  Elec       q    Type
REMARK                         _______ _______ _______ _____ _____    ______ ____
ROOT
ATOM      1  O   UNL     1       1.466   0.049   0.709  0.00  0.00    -0.267 OA
ATOM      2  C   UNL     1       2.126  -0.595  -0.115  0.00  0.00    +0.283 C 
ATOM      3  N   UNL     1       2.871   0.137  -1.074  0.00  0.00    -0.289 N 
ATOM      4  C   UNL     1       3.937  -0.313  -2.037  0.00  0.00    +0.165 C 
ATOM      5  C   UNL     1       2.651   1.603  -1.065  0.00  0.00    +0.115 C 
ATOM      6  C   UNL     1       3.763   0.405  -3.391  0.00  0.00    +0.080 A 
ATOM      7  C   UNL     1       2.119   2.108  -2.420  0.00  0.00    +0.074 C 
ATOM      8  N   UNL     1       4.386   0.134  -4.610  0.00  0.00    -0.226 NA
ATOM      9  C   UNL     1       2.926   1.502  -3.491  0.00  0.00    +0.045 A 
ATOM     10  C   UNL     1       3.907   1.052  -5.466  0.00  0.00    +0.197 A 
ATOM     11  N   UNL     1       3.002   1.891  -4.820  0.00  0.00    -0.327 N 
ATOM     12  C   UNL     1       2.215   2.928  -5.450  0.00  0.00    +0.151 C 
ENDROOT
BRANCH   2  13
ATOM     13  C   UNL     1       2.051  -2.053  -0.053  0.00  0.00    +0.194 A 
ATOM     14  O   UNL     1       0.897  -2.540   0.596  0.00  0.00    -0.450 OA
ATOM     15  C   UNL     1       2.437  -3.160  -0.812  0.00  0.00    +0.008 A 
ATOM     16  C   UNL     1       0.915  -3.897   0.469  0.00  0.00    +0.136 A 
ATOM     17  C   UNL     1       2.185  -4.282   0.077  0.00  0.00    +0.024 A 
ATOM     18  C   UNL     1       2.006  -3.185  -2.264  0.00  0.00    +0.048 C 
ATOM     19  C   UNL     1      -0.182  -4.762   0.396  0.00  0.00    +0.047 A 
ATOM     20  C   UNL     1       2.473  -5.669   0.158  0.00  0.00    +0.012 A 
ATOM     21  C   UNL     1       0.172  -6.065   0.769  0.00  0.00    +0.004 A 
ATOM     22  C   UNL     1       1.455  -6.554   0.554  0.00  0.00    +0.001 A 
ENDBRANCH   2  13
BRANCH  10  23
ATOM     23  C   UNL     1       4.262   1.164  -6.891  0.00  0.00    +0.280 C 
ATOM     24  O   UNL     1       3.768   2.021  -7.622  0.00  0.00    -0.267 OA
ATOM     25  N   UNL     1       5.178   0.254  -7.379  0.00  0.00    -0.305 N 
ATOM     26  H   UNL     1       5.547  -0.419  -6.761  0.00  0.00    +0.149 HD
BRANCH  25  27
ATOM     27  C   UNL     1       5.626   0.243  -8.768  0.00  0.00    +0.140 C 
BRANCH  27  28
ATOM     28  C   UNL     1       5.448  -1.112  -9.409  0.00  0.00    -0.030 A 
ATOM     29  C   UNL     1       4.174  -1.668  -9.523  0.00  0.00    +0.007 A 
ATOM     30  C   UNL     1       6.521  -1.838  -9.926  0.00  0.00    +0.007 A 
ATOM     31  C   UNL     1       3.989  -2.942 -10.084  0.00  0.00    +0.023 A 
ATOM     32  C   UNL     1       6.319  -3.123 -10.488  0.00  0.00    +0.023 A 
ATOM     33  C   UNL     1       5.055  -3.722 -10.563  0.00  0.00    +0.030 A 
BRANCH  33  34
ATOM     34  N   UNL     1       4.850  -5.016 -11.009  0.00  0.00    -0.333 N 
ATOM     35  C   UNL     1       3.609  -5.431 -11.696  0.00  0.00    +0.086 C 
ATOM     36  C   UNL     1       5.944  -5.992 -11.159  0.00  0.00    +0.086 C 
ATOM     37  C   UNL     1       3.181  -6.841 -11.223  0.00  0.00    -0.060 C 
ATOM     38  C   UNL     1       5.465  -7.399 -10.713  0.00  0.00    -0.060 C 
ATOM     39  N   UNL     1       4.247  -7.850 -11.423  0.00  0.00    +0.380 N 
ATOM     40  C   UNL     1       3.817  -9.160 -10.938  0.00  0.00    -0.096 C 
ATOM     41  H   UNL     1       4.447  -7.944 -12.418  0.00  0.00    -0.082 HD
ENDBRANCH  33  34
ENDBRANCH  27  28
ENDBRANCH  25  27
ENDBRANCH  10  23
TORSDOF 5
