REMARK  Name = CTX-1020759
REMARK  9 active torsions:
REMARK  status: ('A' for Active; 'I' for Inactive)
REMARK    1  A    between atoms: C_2  and  C_4
REMARK    2  A    between atoms: N_3  and  C_5
REMARK    3  A    between atoms: C_5  and  C_8
REMARK    4  A    between atoms: C_19  and  N_22
REMARK    5  A    between atoms: C_21  and  C_24
REMARK    6  A    between atoms: N_27  and  C_32
REMARK    7  A    between atoms: C_32  and  C_36
REMARK    8  A    between atoms: N_34  and  C_38
REMARK    9  A    between atoms: C_36  and  O_40
REMARK                            x       y       z     vdW  Elec       q    Type
REMARK                         _______ _______ _______ _____ _____    ______ ____
ROOT
ATOM      1  C   UNL     1       3.089   1.308   0.121  0.00  0.00    +0.126 A 
ATOM      2  N   UNL     1       4.141   1.718  -0.669  0.00  0.00    -0.245 NA
ATOM      3  C   UNL     1       2.631   2.042   1.207  0.00  0.00    +0.033 A 
ATOM      4  C   UNL     1       4.746   2.923  -0.345  0.00  0.00    +0.063 A 
ATOM      5  C   UNL     1       3.264   3.234   1.529  0.00  0.00    +0.008 A 
ATOM      6  C   UNL     1       4.348   3.682   0.769  0.00  0.00    -0.023 A 
ATOM      7  C   UNL     1       5.921   3.449  -1.203  0.00  0.00    +0.163 C 
ATOM      8  C   UNL     1       5.006   4.994   1.111  0.00  0.00    +0.056 C 
ATOM      9  N   UNL     1       6.379   4.864  -0.902  0.00  0.00    -0.290 N 
ATOM     10  C   UNL     1       6.402   5.173   0.506  0.00  0.00    +0.113 C 
ATOM     11  C   UNL     1       6.625   5.757  -1.976  0.00  0.00    +0.263 C 
ATOM     12  O   UNL     1       6.329   5.308  -3.085  0.00  0.00    -0.268 OA
ENDROOT
BRANCH  11  13
ATOM     13  C   UNL     1       7.135   7.188  -1.925  0.00  0.00    +0.106 A 
ATOM     14  N   UNL     1       8.063   8.015  -1.182  0.00  0.00    -0.334 N 
ATOM     15  C   UNL     1       6.956   7.953  -3.080  0.00  0.00    +0.041 A 
ATOM     16  C   UNL     1       8.120   9.401  -1.693  0.00  0.00    +0.050 A 
ATOM     17  C   UNL     1       7.446   9.267  -2.914  0.00  0.00    +0.001 A 
ATOM     18  C   UNL     1       8.740  10.752  -1.387  0.00  0.00    +0.026 A 
ATOM     19  C   UNL     1       7.330  10.360  -3.795  0.00  0.00    +0.010 A 
ATOM     20  C   UNL     1       8.851  11.713  -2.463  0.00  0.00    +0.002 A 
ATOM     21  C   UNL     1       8.049  11.533  -3.582  0.00  0.00    +0.001 A 
BRANCH  14  22
ATOM     22  C   UNL     1       9.151   7.386  -0.434  0.00  0.00    +0.150 C 
BRANCH  22  23
ATOM     23  C   UNL     1       9.847   6.182  -1.121  0.00  0.00    +0.177 C 
BRANCH  23  24
ATOM     24  O   UNL     1      10.429   5.295  -0.160  0.00  0.00    -0.393 OA
ATOM     25  H   UNL     1      11.101   5.770   0.352  0.00  0.00    +0.209 HD
ENDBRANCH  23  24
ENDBRANCH  22  23
ENDBRANCH  14  22
ENDBRANCH  11  13
BRANCH   1  27
ATOM     26  O   UNL     1       1.413  -0.325   0.559  0.00  0.00    -0.269 OA
ATOM     27  C   UNL     1       2.342   0.013  -0.161  0.00  0.00    +0.263 C 
ATOM     28  N   UNL     1       2.751  -0.741  -1.240  0.00  0.00    -0.306 N 
ATOM     29  H   UNL     1       3.469  -0.411  -1.827  0.00  0.00    +0.149 HD
BRANCH  28  30
ATOM     30  C   UNL     1       2.119  -2.028  -1.512  0.00  0.00    +0.140 C 
BRANCH  30  31
ATOM     31  C   UNL     1       2.236  -2.437  -2.956  0.00  0.00    -0.030 A 
ATOM     32  C   UNL     1       2.854  -3.636  -3.313  0.00  0.00    +0.007 A 
ATOM     33  C   UNL     1       1.694  -1.640  -3.972  0.00  0.00    +0.007 A 
ATOM     34  C   UNL     1       2.969  -3.997  -4.659  0.00  0.00    +0.023 A 
ATOM     35  C   UNL     1       1.830  -2.003  -5.319  0.00  0.00    +0.023 A 
ATOM     36  C   UNL     1       2.484  -3.183  -5.694  0.00  0.00    +0.030 A 
BRANCH  36  37
ATOM     37  N   UNL     1       2.611  -3.605  -7.004  0.00  0.00    -0.333 N 
ATOM     38  C   UNL     1       1.707  -3.126  -8.059  0.00  0.00    +0.086 C 
ATOM     39  C   UNL     1       3.956  -3.949  -7.505  0.00  0.00    +0.086 C 
ATOM     40  C   UNL     1       1.615  -4.209  -9.163  0.00  0.00    -0.060 C 
ATOM     41  C   UNL     1       3.825  -5.012  -8.619  0.00  0.00    -0.060 C 
ATOM     42  N   UNL     1       2.942  -4.564  -9.722  0.00  0.00    +0.380 N 
ATOM     43  C   UNL     1       2.814  -5.606 -10.735  0.00  0.00    -0.096 C 
ATOM     44  H   UNL     1       3.349  -3.744 -10.172  0.00  0.00    -0.082 HD
ENDBRANCH  36  37
ENDBRANCH  30  31
ENDBRANCH  28  30
ENDBRANCH   1  27
TORSDOF 8
