REMARK  Name = CTX-1020752
REMARK  8 active torsions:
REMARK  status: ('A' for Active; 'I' for Inactive)
REMARK    1  A    between atoms: C_2  and  C_4
REMARK    2  A    between atoms: N_3  and  C_5
REMARK    3  A    between atoms: C_5  and  C_8
REMARK    4  A    between atoms: C_19  and  N_22
REMARK    5  A    between atoms: C_21  and  C_24
REMARK    6  A    between atoms: N_27  and  C_32
REMARK    7  A    between atoms: C_28  and  C_34
REMARK    8  A    between atoms: N_35  and  C_38
REMARK                            x       y       z     vdW  Elec       q    Type
REMARK                         _______ _______ _______ _____ _____    ______ ____
ROOT
ATOM      1  C   UNL     1       3.186  -0.711   1.089  0.00  0.00    +0.126 A 
ATOM      2  N   UNL     1       4.260   0.003   1.526  0.00  0.00    -0.245 NA
ATOM      3  C   UNL     1       2.782  -1.921   1.632  0.00  0.00    +0.033 A 
ATOM      4  C   UNL     1       4.985  -0.545   2.544  0.00  0.00    +0.063 A 
ATOM      5  C   UNL     1       3.525  -2.457   2.674  0.00  0.00    +0.008 A 
ATOM      6  C   UNL     1       4.657  -1.779   3.126  0.00  0.00    -0.023 A 
ATOM      7  C   UNL     1       6.221   0.208   3.031  0.00  0.00    +0.163 C 
ATOM      8  C   UNL     1       5.444  -2.353   4.277  0.00  0.00    +0.056 C 
ATOM      9  N   UNL     1       6.733  -0.282   4.324  0.00  0.00    -0.290 N 
ATOM     10  C   UNL     1       6.827  -1.730   4.416  0.00  0.00    +0.113 C 
ATOM     11  C   UNL     1       7.257   0.652   5.214  0.00  0.00    +0.264 C 
ATOM     12  O   UNL     1       7.303   1.837   4.877  0.00  0.00    -0.268 OA
ENDROOT
BRANCH  11  13
ATOM     13  C   UNL     1       7.766   0.269   6.536  0.00  0.00    +0.108 A 
ATOM     14  N   UNL     1       8.548   1.180   7.223  0.00  0.00    -0.339 N 
ATOM     15  C   UNL     1       8.280  -0.881   7.141  0.00  0.00    -0.013 A 
ATOM     16  C   UNL     1       9.839   0.727   7.121  0.00  0.00    +0.050 A 
ATOM     17  C   UNL     1       8.030   2.277   8.003  0.00  0.00    +0.149 C 
ATOM     18  C   UNL     1       9.695  -0.665   7.068  0.00  0.00    +0.004 A 
ATOM     19  C   UNL     1       7.638  -1.750   8.168  0.00  0.00    +0.047 C 
ATOM     20  C   UNL     1      11.078   1.367   7.134  0.00  0.00    +0.026 A 
ATOM     21  C   UNL     1      10.840  -1.469   7.138  0.00  0.00    +0.010 A 
ATOM     22  C   UNL     1      12.207   0.543   7.062  0.00  0.00    +0.002 A 
ATOM     23  C   UNL     1      12.094  -0.850   7.079  0.00  0.00    +0.001 A 
ENDBRANCH  11  13
BRANCH   1  25
ATOM     24  O   UNL     1       1.631  -0.905  -0.691  0.00  0.00    -0.269 OA
ATOM     25  C   UNL     1       2.384  -0.170  -0.049  0.00  0.00    +0.263 C 
ATOM     26  N   UNL     1       2.513   1.176  -0.307  0.00  0.00    -0.306 N 
ATOM     27  H   UNL     1       3.109   1.715   0.262  0.00  0.00    +0.149 HD
BRANCH  26  28
ATOM     28  C   UNL     1       1.804   1.823  -1.381  0.00  0.00    +0.140 C 
BRANCH  28  29
ATOM     29  C   UNL     1       2.755   2.502  -2.327  0.00  0.00    -0.030 A 
ATOM     30  C   UNL     1       3.744   1.759  -2.978  0.00  0.00    +0.007 A 
ATOM     31  C   UNL     1       2.661   3.871  -2.596  0.00  0.00    +0.007 A 
ATOM     32  C   UNL     1       4.637   2.383  -3.849  0.00  0.00    +0.023 A 
ATOM     33  C   UNL     1       3.555   4.486  -3.483  0.00  0.00    +0.023 A 
ATOM     34  C   UNL     1       4.567   3.758  -4.118  0.00  0.00    +0.030 A 
BRANCH  34  35
ATOM     35  N   UNL     1       5.447   4.309  -5.036  0.00  0.00    -0.333 N 
ATOM     36  C   UNL     1       5.114   5.541  -5.762  0.00  0.00    +0.086 C 
ATOM     37  C   UNL     1       6.890   4.188  -4.752  0.00  0.00    +0.086 C 
ATOM     38  C   UNL     1       5.914   5.566  -7.088  0.00  0.00    -0.060 C 
ATOM     39  C   UNL     1       7.677   4.243  -6.083  0.00  0.00    -0.060 C 
ATOM     40  N   UNL     1       7.379   5.455  -6.884  0.00  0.00    +0.380 N 
ATOM     41  C   UNL     1       8.066   5.393  -8.172  0.00  0.00    -0.096 C 
ATOM     42  H   UNL     1       7.711   6.279  -6.382  0.00  0.00    -0.082 HD
ENDBRANCH  34  35
ENDBRANCH  28  29
ENDBRANCH  26  28
ENDBRANCH   1  25
TORSDOF 5
