REMARK  Name = CTX-1020766
REMARK  5 active torsions:
REMARK  status: ('A' for Active; 'I' for Inactive)
REMARK    1  A    between atoms: C_5  and  C_6
REMARK    2  A    between atoms: C_6  and  N_7
REMARK    3  A    between atoms: C_8  and  C_10
REMARK    4  A    between atoms: C_20  and  C_22
REMARK    5  A    between atoms: C_24  and  C_27
REMARK                            x       y       z     vdW  Elec       q    Type
REMARK                         _______ _______ _______ _____ _____    ______ ____
ROOT
ATOM      1  C   UNL     1       6.350   0.586  -0.006  0.00  0.00    +0.126 A 
ATOM      2  N   UNL     1       7.375   0.926   0.834  0.00  0.00    -0.245 NA
ATOM      3  C   UNL     1       6.380  -0.501  -0.867  0.00  0.00    +0.033 A 
ATOM      4  C   UNL     1       8.481   0.122   0.833  0.00  0.00    +0.063 A 
ATOM      5  C   UNL     1       7.517  -1.295  -0.871  0.00  0.00    +0.008 A 
ATOM      6  C   UNL     1       8.583  -0.995  -0.022  0.00  0.00    -0.023 A 
ATOM      7  C   UNL     1       9.626   0.475   1.774  0.00  0.00    +0.163 C 
ATOM      8  C   UNL     1       9.777  -1.915   0.015  0.00  0.00    +0.056 C 
ATOM      9  N   UNL     1      10.588  -0.616   1.943  0.00  0.00    -0.289 N 
ATOM     10  C   UNL     1      10.980  -1.307   0.725  0.00  0.00    +0.113 C 
ATOM     11  C   UNL     1      11.304  -0.756   3.137  0.00  0.00    +0.283 C 
ATOM     12  O   UNL     1      11.487   0.203   3.886  0.00  0.00    -0.267 OA
ENDROOT
BRANCH  11  13
ATOM     13  C   UNL     1      11.563  -2.138   3.551  0.00  0.00    +0.194 A 
ATOM     14  O   UNL     1      10.697  -3.074   3.029  0.00  0.00    -0.450 OA
ATOM     15  C   UNL     1      12.114  -2.689   4.708  0.00  0.00    +0.008 A 
ATOM     16  C   UNL     1      10.272  -3.791   4.095  0.00  0.00    +0.136 A 
ATOM     17  C   UNL     1      11.040  -3.488   5.207  0.00  0.00    +0.024 A 
ATOM     18  C   UNL     1      13.414  -2.462   5.384  0.00  0.00    +0.048 C 
ATOM     19  C   UNL     1       9.173  -4.636   4.088  0.00  0.00    +0.047 A 
ATOM     20  C   UNL     1      10.637  -3.990   6.454  0.00  0.00    +0.012 A 
ATOM     21  C   UNL     1       8.764  -5.094   5.339  0.00  0.00    +0.004 A 
ATOM     22  C   UNL     1       9.461  -4.755   6.505  0.00  0.00    +0.001 A 
ENDBRANCH  11  13
BRANCH   1  24
ATOM     23  N   UNL     1       5.150   2.521   0.870  0.00  0.00    -0.304 N 
ATOM     24  C   UNL     1       5.104   1.431   0.033  0.00  0.00    +0.263 C 
ATOM     25  O   UNL     1       4.127   1.146  -0.649  0.00  0.00    -0.269 OA
ATOM     26  H   UNL     1       5.960   2.674   1.407  0.00  0.00    +0.149 HD
BRANCH  23  27
ATOM     27  C   UNL     1       4.050   3.448   0.987  0.00  0.00    +0.160 C 
BRANCH  27  32
ATOM     28  S   UNL     1       4.079   5.977  -2.129  0.00  0.00    -0.084 S 
ATOM     29  C   UNL     1       4.854   6.533  -0.705  0.00  0.00    +0.156 A 
ATOM     30  C   UNL     1       3.708   4.509  -1.327  0.00  0.00    +0.071 A 
ATOM     31  N   UNL     1       4.854   5.707   0.318  0.00  0.00    -0.251 NA
ATOM     32  C   UNL     1       4.192   4.534  -0.030  0.00  0.00    +0.065 A 
ENDBRANCH  27  32
ENDBRANCH  23  27
ENDBRANCH   1  24
TORSDOF 4
