MODEL 1
REMARK VINA RESULT:   -11.433      0.000      0.000
REMARK INTER + INTRA:         -15.529
REMARK INTER:                 -14.775
REMARK INTRA:                  -0.754
REMARK UNBOUND:                -0.754
REMARK  Name = CTX-1020746
REMARK  7 active torsions:
REMARK  status: ('A' for Active; 'I' for Inactive)
REMARK    1  A    between atoms: C_2  and  C_4
REMARK    2  A    between atoms: C_8  and  C_13
REMARK    3  A    between atoms: C_18  and  C_22
REMARK    4  A    between atoms: N_24  and  C_25
REMARK    5  A    between atoms: C_25  and  C_26
REMARK    6  A    between atoms: C_31  and  N_32
REMARK    7  A    between atoms: N_37  and  C_38
REMARK                            x       y       z     vdW  Elec       q    Type
REMARK                         _______ _______ _______ _____ _____    ______ ____
ROOT
ATOM      1  O   UNL     1      18.615   1.556 -16.667  0.00  0.00    -0.267 OA
ATOM      2  C   UNL     1      19.719   1.086 -16.957  0.00  0.00    +0.283 C 
ATOM      3  N   UNL     1      20.885   1.858 -16.791  0.00  0.00    -0.289 N 
ATOM      4  C   UNL     1      22.198   1.199 -16.698  0.00  0.00    +0.165 C 
ATOM      5  C   UNL     1      20.703   3.282 -16.427  0.00  0.00    +0.115 C 
ATOM      6  C   UNL     1      23.321   2.124 -16.519  0.00  0.00    +0.080 A 
ATOM      7  C   UNL     1      21.938   4.222 -16.322  0.00  0.00    +0.074 C 
ATOM      8  N   UNL     1      24.634   1.739 -16.595  0.00  0.00    -0.227 NA
ATOM      9  C   UNL     1      23.209   3.477 -16.384  0.00  0.00    +0.042 A 
ATOM     10  C   UNL     1      25.334   2.854 -16.535  0.00  0.00    +0.194 A 
ATOM     11  N   UNL     1      24.487   3.953 -16.382  0.00  0.00    -0.338 N 
ATOM     12  H   UNL     1      24.760   4.894 -16.289  0.00  0.00    +0.167 HD
ENDROOT
BRANCH   2  13
ATOM     13  C   UNL     1      19.837  -0.253 -17.546  0.00  0.00    +0.194 A 
ATOM     14  O   UNL     1      19.733  -0.391 -18.920  0.00  0.00    -0.450 OA
ATOM     15  C   UNL     1      19.434  -1.504 -17.055  0.00  0.00    +0.008 A 
ATOM     16  C   UNL     1      19.590  -1.710 -19.177  0.00  0.00    +0.136 A 
ATOM     17  C   UNL     1      19.996  -2.379 -18.037  0.00  0.00    +0.024 A 
ATOM     18  C   UNL     1      17.960  -1.539 -16.652  0.00  0.00    +0.048 C 
ATOM     19  C   UNL     1      19.336  -2.329 -20.391  0.00  0.00    +0.047 A 
ATOM     20  C   UNL     1      20.651  -3.604 -18.253  0.00  0.00    +0.012 A 
ATOM     21  C   UNL     1      20.485  -3.068 -20.633  0.00  0.00    +0.004 A 
ATOM     22  C   UNL     1      20.850  -3.957 -19.612  0.00  0.00    +0.001 A 
ENDBRANCH   2  13
BRANCH  10  23
ATOM     23  C   UNL     1      26.779   2.884 -16.612  0.00  0.00    +0.280 C 
ATOM     24  O   UNL     1      27.458   1.878 -16.878  0.00  0.00    -0.267 OA
ATOM     25  N   UNL     1      27.320   4.117 -16.333  0.00  0.00    -0.305 N 
ATOM     26  H   UNL     1      26.701   4.871 -16.201  0.00  0.00    +0.149 HD
BRANCH  25  27
ATOM     27  C   UNL     1      28.737   4.379 -16.222  0.00  0.00    +0.140 C 
BRANCH  27  28
ATOM     28  C   UNL     1      29.322   4.880 -17.514  0.00  0.00    -0.030 A 
ATOM     29  C   UNL     1      29.672   4.008 -18.550  0.00  0.00    +0.007 A 
ATOM     30  C   UNL     1      29.538   6.246 -17.715  0.00  0.00    +0.007 A 
ATOM     31  C   UNL     1      30.218   4.503 -19.746  0.00  0.00    +0.023 A 
ATOM     32  C   UNL     1      30.086   6.727 -18.914  0.00  0.00    +0.023 A 
ATOM     33  C   UNL     1      30.458   5.867 -19.963  0.00  0.00    +0.030 A 
BRANCH  33  34
ATOM     34  N   UNL     1      31.079   6.321 -21.106  0.00  0.00    -0.333 N 
ATOM     35  C   UNL     1      32.401   5.836 -21.547  0.00  0.00    +0.086 C 
ATOM     36  C   UNL     1      30.377   7.126 -22.118  0.00  0.00    +0.086 C 
ATOM     37  C   UNL     1      33.263   7.028 -22.027  0.00  0.00    -0.060 C 
ATOM     38  C   UNL     1      31.292   8.275 -22.611  0.00  0.00    -0.060 C 
ATOM     39  N   UNL     1      32.601   7.793 -23.108  0.00  0.00    +0.380 N 
ATOM     40  C   UNL     1      33.433   8.909 -23.547  0.00  0.00    -0.096 C 
ATOM     41  H   UNL     1      32.459   7.188 -23.917  0.00  0.00    -0.082 HD
ENDBRANCH  33  34
ENDBRANCH  27  28
ENDBRANCH  25  27
ENDBRANCH  10  23
TORSDOF 5
ENDMDL
MODEL 2
REMARK VINA RESULT:   -11.349      4.055     11.309
REMARK INTER + INTRA:         -15.420
REMARK INTER:                 -15.335
REMARK INTRA:                  -0.085
REMARK UNBOUND:                -0.754
REMARK  Name = CTX-1020746
REMARK  7 active torsions:
REMARK  status: ('A' for Active; 'I' for Inactive)
REMARK    1  A    between atoms: C_2  and  C_4
REMARK    2  A    between atoms: C_8  and  C_13
REMARK    3  A    between atoms: C_18  and  C_22
REMARK    4  A    between atoms: N_24  and  C_25
REMARK    5  A    between atoms: C_25  and  C_26
REMARK    6  A    between atoms: C_31  and  N_32
REMARK    7  A    between atoms: N_37  and  C_38
REMARK                            x       y       z     vdW  Elec       q    Type
REMARK                         _______ _______ _______ _____ _____    ______ ____
ROOT
ATOM      1  O   UNL     1      31.818   6.219 -18.933  0.00  0.00    -0.267 OA
ATOM      2  C   UNL     1      30.857   5.482 -19.166  0.00  0.00    +0.283 C 
ATOM      3  N   UNL     1      30.257   5.480 -20.441  0.00  0.00    -0.289 N 
ATOM      4  C   UNL     1      29.440   4.332 -20.867  0.00  0.00    +0.165 C 
ATOM      5  C   UNL     1      30.718   6.506 -21.403  0.00  0.00    +0.115 C 
ATOM      6  C   UNL     1      28.886   4.461 -22.219  0.00  0.00    +0.080 A 
ATOM      7  C   UNL     1      30.036   6.628 -22.796  0.00  0.00    +0.074 C 
ATOM      8  N   UNL     1      27.953   3.601 -22.736  0.00  0.00    -0.227 NA
ATOM      9  C   UNL     1      29.124   5.502 -23.068  0.00  0.00    +0.042 A 
ATOM     10  C   UNL     1      27.594   4.122 -23.893  0.00  0.00    +0.194 A 
ATOM     11  N   UNL     1      28.314   5.291 -24.145  0.00  0.00    -0.338 N 
ATOM     12  H   UNL     1      28.250   5.856 -24.948  0.00  0.00    +0.167 HD
ENDROOT
BRANCH   2  13
ATOM     13  C   UNL     1      30.272   4.648 -18.109  0.00  0.00    +0.194 A 
ATOM     14  O   UNL     1      29.383   3.647 -18.463  0.00  0.00    -0.450 OA
ATOM     15  C   UNL     1      29.905   4.968 -16.794  0.00  0.00    +0.008 A 
ATOM     16  C   UNL     1      28.784   3.228 -17.327  0.00  0.00    +0.136 A 
ATOM     17  C   UNL     1      29.568   3.676 -16.281  0.00  0.00    +0.024 A 
ATOM     18  C   UNL     1      28.964   6.169 -16.712  0.00  0.00    +0.048 C 
ATOM     19  C   UNL     1      27.742   2.325 -17.185  0.00  0.00    +0.047 A 
ATOM     20  C   UNL     1      29.644   2.819 -15.169  0.00  0.00    +0.012 A 
ATOM     21  C   UNL     1      28.318   1.259 -16.505  0.00  0.00    +0.004 A 
ATOM     22  C   UNL     1      28.946   1.591 -15.298  0.00  0.00    +0.001 A 
ENDBRANCH   2  13
BRANCH  10  23
ATOM     23  C   UNL     1      26.594   3.524 -24.752  0.00  0.00    +0.280 C 
ATOM     24  O   UNL     1      26.057   4.142 -25.688  0.00  0.00    -0.267 OA
ATOM     25  N   UNL     1      26.280   2.230 -24.413  0.00  0.00    -0.305 N 
ATOM     26  H   UNL     1      26.806   1.800 -23.700  0.00  0.00    +0.149 HD
BRANCH  25  27
ATOM     27  C   UNL     1      25.228   1.457 -25.034  0.00  0.00    +0.140 C 
BRANCH  27  28
ATOM     28  C   UNL     1      24.499   0.594 -24.041  0.00  0.00    -0.030 A 
ATOM     29  C   UNL     1      23.369  -0.147 -24.399  0.00  0.00    +0.007 A 
ATOM     30  C   UNL     1      24.934   0.512 -22.715  0.00  0.00    +0.007 A 
ATOM     31  C   UNL     1      22.707  -0.944 -23.451  0.00  0.00    +0.023 A 
ATOM     32  C   UNL     1      24.262  -0.286 -21.777  0.00  0.00    +0.023 A 
ATOM     33  C   UNL     1      23.116  -1.029 -22.113  0.00  0.00    +0.030 A 
BRANCH  33  34
ATOM     34  N   UNL     1      22.399  -1.743 -21.179  0.00  0.00    -0.333 N 
ATOM     35  C   UNL     1      21.471  -2.832 -21.542  0.00  0.00    +0.086 C 
ATOM     36  C   UNL     1      22.683  -1.665 -19.737  0.00  0.00    +0.086 C 
ATOM     37  C   UNL     1      20.172  -2.713 -20.710  0.00  0.00    -0.060 C 
ATOM     38  C   UNL     1      21.357  -1.601 -18.938  0.00  0.00    -0.060 C 
ATOM     39  N   UNL     1      20.442  -2.721 -19.253  0.00  0.00    +0.380 N 
ATOM     40  C   UNL     1      19.203  -2.612 -18.489  0.00  0.00    -0.096 C 
ATOM     41  H   UNL     1      20.879  -3.605 -18.992  0.00  0.00    -0.082 HD
ENDBRANCH  33  34
ENDBRANCH  27  28
ENDBRANCH  25  27
ENDBRANCH  10  23
TORSDOF 5
ENDMDL
MODEL 3
REMARK VINA RESULT:   -11.128      2.630     11.402
REMARK INTER + INTRA:         -15.135
REMARK INTER:                 -14.469
REMARK INTRA:                  -0.665
REMARK UNBOUND:                -0.754
REMARK  Name = CTX-1020746
REMARK  7 active torsions:
REMARK  status: ('A' for Active; 'I' for Inactive)
REMARK    1  A    between atoms: C_2  and  C_4
REMARK    2  A    between atoms: C_8  and  C_13
REMARK    3  A    between atoms: C_18  and  C_22
REMARK    4  A    between atoms: N_24  and  C_25
REMARK    5  A    between atoms: C_25  and  C_26
REMARK    6  A    between atoms: C_31  and  N_32
REMARK    7  A    between atoms: N_37  and  C_38
REMARK                            x       y       z     vdW  Elec       q    Type
REMARK                         _______ _______ _______ _____ _____    ______ ____
ROOT
ATOM      1  O   UNL     1      31.322   4.489 -16.917  0.00  0.00    -0.267 OA
ATOM      2  C   UNL     1      30.226   4.434 -17.482  0.00  0.00    +0.283 C 
ATOM      3  N   UNL     1      29.116   3.868 -16.825  0.00  0.00    -0.289 N 
ATOM      4  C   UNL     1      27.752   4.188 -17.276  0.00  0.00    +0.165 C 
ATOM      5  C   UNL     1      29.370   3.206 -15.525  0.00  0.00    +0.115 C 
ATOM      6  C   UNL     1      26.695   3.537 -16.496  0.00  0.00    +0.080 A 
ATOM      7  C   UNL     1      28.212   2.475 -14.786  0.00  0.00    +0.074 C 
ATOM      8  N   UNL     1      25.374   3.549 -16.859  0.00  0.00    -0.227 NA
ATOM      9  C   UNL     1      26.901   2.744 -15.404  0.00  0.00    +0.042 A 
ATOM     10  C   UNL     1      24.766   2.744 -16.010  0.00  0.00    +0.194 A 
ATOM     11  N   UNL     1      25.675   2.242 -15.079  0.00  0.00    -0.338 N 
ATOM     12  H   UNL     1      25.472   1.639 -14.327  0.00  0.00    +0.167 HD
ENDROOT
BRANCH   2  13
ATOM     13  C   UNL     1      30.070   4.885 -18.870  0.00  0.00    +0.194 A 
ATOM     14  O   UNL     1      30.090   3.944 -19.885  0.00  0.00    -0.450 OA
ATOM     15  C   UNL     1      30.499   6.063 -19.500  0.00  0.00    +0.008 A 
ATOM     16  C   UNL     1      30.215   4.619 -21.049  0.00  0.00    +0.136 A 
ATOM     17  C   UNL     1      29.878   5.932 -20.781  0.00  0.00    +0.024 A 
ATOM     18  C   UNL     1      31.995   6.322 -19.321  0.00  0.00    +0.048 C 
ATOM     19  C   UNL     1      30.393   4.109 -22.326  0.00  0.00    +0.047 A 
ATOM     20  C   UNL     1      29.208   6.611 -21.814  0.00  0.00    +0.012 A 
ATOM     21  C   UNL     1      29.230   4.468 -22.992  0.00  0.00    +0.004 A 
ATOM     22  C   UNL     1      28.926   5.836 -22.969  0.00  0.00    +0.001 A 
ENDBRANCH   2  13
BRANCH  10  23
ATOM     23  C   UNL     1      23.348   2.460 -16.069  0.00  0.00    +0.280 C 
ATOM     24  O   UNL     1      22.778   1.715 -15.253  0.00  0.00    -0.267 OA
ATOM     25  N   UNL     1      22.709   3.064 -17.125  0.00  0.00    -0.305 N 
ATOM     26  H   UNL     1      23.228   3.691 -17.679  0.00  0.00    +0.149 HD
BRANCH  25  27
ATOM     27  C   UNL     1      21.324   2.840 -17.476  0.00  0.00    +0.140 C 
BRANCH  27  28
ATOM     28  C   UNL     1      21.098   1.460 -18.030  0.00  0.00    -0.030 A 
ATOM     29  C   UNL     1      20.038   0.657 -17.597  0.00  0.00    +0.007 A 
ATOM     30  C   UNL     1      21.955   0.933 -19.001  0.00  0.00    +0.007 A 
ATOM     31  C   UNL     1      19.851  -0.629 -18.130  0.00  0.00    +0.023 A 
ATOM     32  C   UNL     1      21.759  -0.354 -19.523  0.00  0.00    +0.023 A 
ATOM     33  C   UNL     1      20.707  -1.183 -19.093  0.00  0.00    +0.030 A 
BRANCH  33  34
ATOM     34  N   UNL     1      20.560  -2.479 -19.534  0.00  0.00    -0.333 N 
ATOM     35  C   UNL     1      20.338  -3.616 -18.620  0.00  0.00    +0.086 C 
ATOM     36  C   UNL     1      20.351  -2.811 -20.952  0.00  0.00    +0.086 C 
ATOM     37  C   UNL     1      21.207  -4.819 -19.059  0.00  0.00    -0.060 C 
ATOM     38  C   UNL     1      21.196  -4.050 -21.337  0.00  0.00    -0.060 C 
ATOM     39  N   UNL     1      20.939  -5.216 -20.461  0.00  0.00    +0.380 N 
ATOM     40  C   UNL     1      21.767  -6.353 -20.852  0.00  0.00    -0.096 C 
ATOM     41  H   UNL     1      19.966  -5.506 -20.553  0.00  0.00    -0.082 HD
ENDBRANCH  33  34
ENDBRANCH  27  28
ENDBRANCH  25  27
ENDBRANCH  10  23
TORSDOF 5
ENDMDL
MODEL 4
REMARK VINA RESULT:   -11.026      3.622     11.581
REMARK INTER + INTRA:         -15.003
REMARK INTER:                 -15.025
REMARK INTRA:                   0.023
REMARK UNBOUND:                -0.754
REMARK  Name = CTX-1020746
REMARK  7 active torsions:
REMARK  status: ('A' for Active; 'I' for Inactive)
REMARK    1  A    between atoms: C_2  and  C_4
REMARK    2  A    between atoms: C_8  and  C_13
REMARK    3  A    between atoms: C_18  and  C_22
REMARK    4  A    between atoms: N_24  and  C_25
REMARK    5  A    between atoms: C_25  and  C_26
REMARK    6  A    between atoms: C_31  and  N_32
REMARK    7  A    between atoms: N_37  and  C_38
REMARK                            x       y       z     vdW  Elec       q    Type
REMARK                         _______ _______ _______ _____ _____    ______ ____
ROOT
ATOM      1  O   UNL     1      31.469   6.362 -20.680  0.00  0.00    -0.267 OA
ATOM      2  C   UNL     1      30.643   5.489 -20.398  0.00  0.00    +0.283 C 
ATOM      3  N   UNL     1      29.734   5.032 -21.371  0.00  0.00    -0.289 N 
ATOM      4  C   UNL     1      29.072   3.727 -21.204  0.00  0.00    +0.165 C 
ATOM      5  C   UNL     1      29.707   5.757 -22.661  0.00  0.00    +0.115 C 
ATOM      6  C   UNL     1      28.158   3.376 -22.296  0.00  0.00    +0.080 A 
ATOM      7  C   UNL     1      28.664   5.372 -23.748  0.00  0.00    +0.074 C 
ATOM      8  N   UNL     1      27.307   2.303 -22.250  0.00  0.00    -0.227 NA
ATOM      9  C   UNL     1      27.950   4.126 -23.416  0.00  0.00    +0.042 A 
ATOM     10  C   UNL     1      26.553   2.403 -23.327  0.00  0.00    +0.194 A 
ATOM     11  N   UNL     1      26.935   3.508 -24.088  0.00  0.00    -0.338 N 
ATOM     12  H   UNL     1      26.548   3.790 -24.948  0.00  0.00    +0.167 HD
ENDROOT
BRANCH   2  13
ATOM     13  C   UNL     1      30.541   4.961 -19.032  0.00  0.00    +0.194 A 
ATOM     14  O   UNL     1      29.773   3.831 -18.808  0.00  0.00    -0.450 OA
ATOM     15  C   UNL     1      30.521   5.626 -17.797  0.00  0.00    +0.008 A 
ATOM     16  C   UNL     1      29.609   3.720 -17.472  0.00  0.00    +0.136 A 
ATOM     17  C   UNL     1      30.573   4.521 -16.890  0.00  0.00    +0.024 A 
ATOM     18  C   UNL     1      29.452   6.715 -17.723  0.00  0.00    +0.048 C 
ATOM     19  C   UNL     1      28.824   2.817 -16.772  0.00  0.00    +0.047 A 
ATOM     20  C   UNL     1      31.113   4.042 -15.683  0.00  0.00    +0.012 A 
ATOM     21  C   UNL     1      29.744   2.053 -16.069  0.00  0.00    +0.004 A 
ATOM     22  C   UNL     1      30.628   2.778 -15.259  0.00  0.00    +0.001 A 
ENDBRANCH   2  13
BRANCH  10  23
ATOM     23  C   UNL     1      25.495   1.467 -23.640  0.00  0.00    +0.280 C 
ATOM     24  O   UNL     1      25.101   1.263 -24.801  0.00  0.00    -0.267 OA
ATOM     25  N   UNL     1      24.956   0.855 -22.534  0.00  0.00    -0.305 N 
ATOM     26  H   UNL     1      25.379   1.027 -21.661  0.00  0.00    +0.149 HD
BRANCH  25  27
ATOM     27  C   UNL     1      23.809  -0.025 -22.566  0.00  0.00    +0.140 C 
BRANCH  27  28
ATOM     28  C   UNL     1      22.968   0.098 -21.324  0.00  0.00    -0.030 A 
ATOM     29  C   UNL     1      22.672   1.340 -20.756  0.00  0.00    +0.007 A 
ATOM     30  C   UNL     1      22.458  -1.041 -20.695  0.00  0.00    +0.007 A 
ATOM     31  C   UNL     1      21.886   1.426 -19.595  0.00  0.00    +0.023 A 
ATOM     32  C   UNL     1      21.676  -0.942 -19.534  0.00  0.00    +0.023 A 
ATOM     33  C   UNL     1      21.377   0.296 -18.938  0.00  0.00    +0.030 A 
BRANCH  33  34
ATOM     34  N   UNL     1      20.687   0.398 -17.751  0.00  0.00    -0.333 N 
ATOM     35  C   UNL     1      20.899   1.499 -16.792  0.00  0.00    +0.086 C 
ATOM     36  C   UNL     1      19.505  -0.426 -17.453  0.00  0.00    +0.086 C 
ATOM     37  C   UNL     1      20.943   0.938 -15.350  0.00  0.00    -0.060 C 
ATOM     38  C   UNL     1      19.560  -0.923 -15.987  0.00  0.00    -0.060 C 
ATOM     39  N   UNL     1      19.716   0.180 -15.011  0.00  0.00    +0.380 N 
ATOM     40  C   UNL     1      19.778  -0.336 -13.647  0.00  0.00    -0.096 C 
ATOM     41  H   UNL     1      18.907   0.799 -15.062  0.00  0.00    -0.082 HD
ENDBRANCH  33  34
ENDBRANCH  27  28
ENDBRANCH  25  27
ENDBRANCH  10  23
TORSDOF 5
ENDMDL
MODEL 5
REMARK VINA RESULT:    -9.263      3.739     12.296
REMARK INTER + INTRA:         -12.725
REMARK INTER:                 -12.077
REMARK INTRA:                  -0.648
REMARK UNBOUND:                -0.754
REMARK  Name = CTX-1020746
REMARK  7 active torsions:
REMARK  status: ('A' for Active; 'I' for Inactive)
REMARK    1  A    between atoms: C_2  and  C_4
REMARK    2  A    between atoms: C_8  and  C_13
REMARK    3  A    between atoms: C_18  and  C_22
REMARK    4  A    between atoms: N_24  and  C_25
REMARK    5  A    between atoms: C_25  and  C_26
REMARK    6  A    between atoms: C_31  and  N_32
REMARK    7  A    between atoms: N_37  and  C_38
REMARK                            x       y       z     vdW  Elec       q    Type
REMARK                         _______ _______ _______ _____ _____    ______ ____
ROOT
ATOM      1  O   UNL     1      30.299   6.491 -23.200  0.00  0.00    -0.267 OA
ATOM      2  C   UNL     1      29.767   5.772 -22.350  0.00  0.00    +0.283 C 
ATOM      3  N   UNL     1      28.801   4.820 -22.731  0.00  0.00    -0.289 N 
ATOM      4  C   UNL     1      28.497   3.685 -21.844  0.00  0.00    +0.165 C 
ATOM      5  C   UNL     1      28.344   4.850 -24.139  0.00  0.00    +0.115 C 
ATOM      6  C   UNL     1      27.479   2.771 -22.370  0.00  0.00    +0.080 A 
ATOM      7  C   UNL     1      27.210   3.895 -24.610  0.00  0.00    +0.074 C 
ATOM      8  N   UNL     1      26.918   1.762 -21.631  0.00  0.00    -0.227 NA
ATOM      9  C   UNL     1      26.879   2.882 -23.591  0.00  0.00    +0.042 A 
ATOM     10  C   UNL     1      25.954   1.267 -22.382  0.00  0.00    +0.194 A 
ATOM     11  N   UNL     1      25.912   1.921 -23.614  0.00  0.00    -0.338 N 
ATOM     12  H   UNL     1      25.301   1.725 -24.361  0.00  0.00    +0.167 HD
ENDROOT
BRANCH   2  13
ATOM     13  C   UNL     1      30.071   5.937 -20.924  0.00  0.00    +0.194 A 
ATOM     14  O   UNL     1      29.146   6.571 -20.112  0.00  0.00    -0.450 OA
ATOM     15  C   UNL     1      31.293   6.161 -20.273  0.00  0.00    +0.008 A 
ATOM     16  C   UNL     1      29.765   6.848 -18.944  0.00  0.00    +0.136 A 
ATOM     17  C   UNL     1      30.897   6.055 -18.902  0.00  0.00    +0.024 A 
ATOM     18  C   UNL     1      32.054   7.363 -20.830  0.00  0.00    +0.048 C 
ATOM     19  C   UNL     1      29.287   7.574 -17.865  0.00  0.00    +0.047 A 
ATOM     20  C   UNL     1      31.257   5.577 -17.630  0.00  0.00    +0.012 A 
ATOM     21  C   UNL     1      29.196   6.635 -16.847  0.00  0.00    +0.004 A 
ATOM     22  C   UNL     1      30.378   5.934 -16.575  0.00  0.00    +0.001 A 
ENDBRANCH   2  13
BRANCH  10  23
ATOM     23  C   UNL     1      25.091   0.189 -21.950  0.00  0.00    +0.280 C 
ATOM     24  O   UNL     1      25.520  -0.820 -21.363  0.00  0.00    -0.267 OA
ATOM     25  N   UNL     1      23.769   0.376 -22.276  0.00  0.00    -0.305 N 
ATOM     26  H   UNL     1      23.513   1.237 -22.679  0.00  0.00    +0.149 HD
BRANCH  25  27
ATOM     27  C   UNL     1      22.730  -0.608 -22.067  0.00  0.00    +0.140 C 
BRANCH  27  28
ATOM     28  C   UNL     1      22.036  -0.424 -20.745  0.00  0.00    -0.030 A 
ATOM     29  C   UNL     1      21.404  -1.487 -20.092  0.00  0.00    +0.007 A 
ATOM     30  C   UNL     1      22.000   0.830 -20.129  0.00  0.00    +0.007 A 
ATOM     31  C   UNL     1      20.762  -1.287 -18.859  0.00  0.00    +0.023 A 
ATOM     32  C   UNL     1      21.354   1.016 -18.898  0.00  0.00    +0.023 A 
ATOM     33  C   UNL     1      20.700  -0.035 -18.230  0.00  0.00    +0.030 A 
BRANCH  33  34
ATOM     34  N   UNL     1      19.987   0.158 -17.067  0.00  0.00    -0.333 N 
ATOM     35  C   UNL     1      20.524   0.900 -15.911  0.00  0.00    +0.086 C 
ATOM     36  C   UNL     1      18.547  -0.129 -16.969  0.00  0.00    +0.086 C 
ATOM     37  C   UNL     1      20.179   0.152 -14.601  0.00  0.00    -0.060 C 
ATOM     38  C   UNL     1      18.236  -0.829 -15.623  0.00  0.00    -0.060 C 
ATOM     39  N   UNL     1      18.721  -0.063 -14.452  0.00  0.00    +0.380 N 
ATOM     40  C   UNL     1      18.419  -0.767 -13.209  0.00  0.00    -0.096 C 
ATOM     41  H   UNL     1      18.245   0.838 -14.411  0.00  0.00    -0.082 HD
ENDBRANCH  33  34
ENDBRANCH  27  28
ENDBRANCH  25  27
ENDBRANCH  10  23
TORSDOF 5
ENDMDL
