MODEL 1
REMARK VINA RESULT:   -12.470      0.000      0.000
REMARK INTER + INTRA:         -16.676
REMARK INTER:                 -16.115
REMARK INTRA:                  -0.560
REMARK UNBOUND:                -0.560
REMARK  Name = CTX-1020745
REMARK  8 active torsions:
REMARK  status: ('A' for Active; 'I' for Inactive)
REMARK    1  A    between atoms: C_2  and  C_4
REMARK    2  A    between atoms: N_9  and  C_12
REMARK    3  A    between atoms: C_12  and  C_14
REMARK    4  A    between atoms: C_15  and  C_19
REMARK    5  A    between atoms: N_22  and  C_26
REMARK    6  A    between atoms: C_23  and  C_28
REMARK    7  A    between atoms: C_24  and  N_29
REMARK    8  A    between atoms: N_38  and  C_39
REMARK                            x       y       z     vdW  Elec       q    Type
REMARK                         _______ _______ _______ _____ _____    ______ ____
ROOT
ATOM      1  S   UNL     1      28.033   5.103 -23.930  0.00  0.00    -0.088 S 
ATOM      2  C   UNL     1      29.083   4.901 -22.590  0.00  0.00    +0.074 A 
ATOM      3  C   UNL     1      27.297   3.596 -23.660  0.00  0.00    -0.003 A 
ATOM      4  C   UNL     1      28.874   3.680 -21.972  0.00  0.00    +0.026 A 
ATOM      5  C   UNL     1      27.836   2.921 -22.582  0.00  0.00    -0.019 A 
ATOM      6  C   UNL     1      26.141   3.090 -24.466  0.00  0.00    +0.062 C 
ATOM      7  C   UNL     1      27.340   1.583 -22.128  0.00  0.00    +0.144 C 
ATOM      8  C   UNL     1      25.876   1.618 -24.116  0.00  0.00    +0.113 C 
ATOM      9  N   UNL     1      26.001   1.364 -22.687  0.00  0.00    -0.292 N 
ATOM     10  C   UNL     1      25.073   0.773 -21.845  0.00  0.00    +0.264 C 
ATOM     11  O   UNL     1      25.474   0.352 -20.755  0.00  0.00    -0.268 OA
ENDROOT
BRANCH  10  12
ATOM     12  C   UNL     1      23.635   0.669 -22.173  0.00  0.00    +0.108 A 
ATOM     13  N   UNL     1      22.764   0.603 -21.073  0.00  0.00    -0.339 N 
ATOM     14  C   UNL     1      22.921  -0.176 -23.045  0.00  0.00    -0.013 A 
ATOM     15  C   UNL     1      22.539  -0.750 -20.912  0.00  0.00    +0.050 A 
ATOM     16  C   UNL     1      22.746   1.558 -19.982  0.00  0.00    +0.149 C 
ATOM     17  C   UNL     1      22.632  -1.285 -22.197  0.00  0.00    +0.004 A 
ATOM     18  C   UNL     1      22.688  -0.167 -24.507  0.00  0.00    +0.047 C 
ATOM     19  C   UNL     1      22.365  -1.518 -19.776  0.00  0.00    +0.026 A 
ATOM     20  C   UNL     1      22.498  -2.671 -22.392  0.00  0.00    +0.010 A 
ATOM     21  C   UNL     1      22.461  -2.885 -19.994  0.00  0.00    +0.002 A 
ATOM     22  C   UNL     1      22.544  -3.469 -21.254  0.00  0.00    +0.001 A 
ENDBRANCH  10  12
BRANCH   2  23
ATOM     23  C   UNL     1      30.052   5.904 -22.172  0.00  0.00    +0.251 C 
ATOM     24  O   UNL     1      30.687   5.802 -21.125  0.00  0.00    -0.270 OA
ATOM     25  N   UNL     1      30.227   6.978 -23.016  0.00  0.00    -0.307 N 
ATOM     26  H   UNL     1      29.703   7.019 -23.848  0.00  0.00    +0.149 HD
BRANCH  25  27
ATOM     27  C   UNL     1      31.153   8.048 -22.721  0.00  0.00    +0.139 C 
BRANCH  27  28
ATOM     28  C   UNL     1      32.265   8.109 -23.732  0.00  0.00    -0.030 A 
ATOM     29  C   UNL     1      32.025   7.750 -25.061  0.00  0.00    +0.007 A 
ATOM     30  C   UNL     1      33.542   8.570 -23.384  0.00  0.00    +0.007 A 
ATOM     31  C   UNL     1      33.048   7.825 -26.002  0.00  0.00    +0.023 A 
ATOM     32  C   UNL     1      34.562   8.653 -24.341  0.00  0.00    +0.023 A 
ATOM     33  C   UNL     1      34.341   8.263 -25.666  0.00  0.00    +0.030 A 
BRANCH  33  34
ATOM     34  N   UNL     1      35.303   8.319 -26.663  0.00  0.00    -0.333 N 
ATOM     35  C   UNL     1      34.991   8.837 -28.007  0.00  0.00    +0.086 C 
ATOM     36  C   UNL     1      36.658   8.701 -26.214  0.00  0.00    +0.086 C 
ATOM     37  C   UNL     1      36.062   8.316 -29.002  0.00  0.00    -0.060 C 
ATOM     38  C   UNL     1      37.691   8.163 -27.219  0.00  0.00    -0.060 C 
ATOM     39  N   UNL     1      37.446   8.658 -28.592  0.00  0.00    +0.380 N 
ATOM     40  C   UNL     1      38.414   8.063 -29.503  0.00  0.00    -0.096 C 
ATOM     41  H   UNL     1      37.553   9.672 -28.618  0.00  0.00    -0.082 HD
ENDBRANCH  33  34
ENDBRANCH  27  28
ENDBRANCH  25  27
ENDBRANCH   2  23
TORSDOF 5
ENDMDL
MODEL 2
REMARK VINA RESULT:   -10.359      4.253      6.760
REMARK INTER + INTRA:         -13.947
REMARK INTER:                 -13.199
REMARK INTRA:                  -0.748
REMARK UNBOUND:                -0.560
REMARK  Name = CTX-1020745
REMARK  8 active torsions:
REMARK  status: ('A' for Active; 'I' for Inactive)
REMARK    1  A    between atoms: C_2  and  C_4
REMARK    2  A    between atoms: N_9  and  C_12
REMARK    3  A    between atoms: C_12  and  C_14
REMARK    4  A    between atoms: C_15  and  C_19
REMARK    5  A    between atoms: N_22  and  C_26
REMARK    6  A    between atoms: C_23  and  C_28
REMARK    7  A    between atoms: C_24  and  N_29
REMARK    8  A    between atoms: N_38  and  C_39
REMARK                            x       y       z     vdW  Elec       q    Type
REMARK                         _______ _______ _______ _____ _____    ______ ____
ROOT
ATOM      1  S   UNL     1      23.191   2.565 -15.850  0.00  0.00    -0.088 S 
ATOM      2  C   UNL     1      24.736   2.586 -16.594  0.00  0.00    +0.074 A 
ATOM      3  C   UNL     1      22.473   1.857 -17.217  0.00  0.00    -0.003 A 
ATOM      4  C   UNL     1      24.678   2.076 -17.880  0.00  0.00    +0.026 A 
ATOM      5  C   UNL     1      23.371   1.645 -18.245  0.00  0.00    -0.019 A 
ATOM      6  C   UNL     1      21.035   1.444 -17.269  0.00  0.00    +0.062 C 
ATOM      7  C   UNL     1      22.985   1.010 -19.545  0.00  0.00    +0.144 C 
ATOM      8  C   UNL     1      20.662   1.059 -18.709  0.00  0.00    +0.113 C 
ATOM      9  N   UNL     1      21.717   0.295 -19.361  0.00  0.00    -0.292 N 
ATOM     10  C   UNL     1      21.611  -0.938 -19.983  0.00  0.00    +0.264 C 
ATOM     11  O   UNL     1      22.520  -1.274 -20.750  0.00  0.00    -0.268 OA
ENDROOT
BRANCH  10  12
ATOM     12  C   UNL     1      20.494  -1.876 -19.735  0.00  0.00    +0.108 A 
ATOM     13  N   UNL     1      20.801  -2.988 -18.934  0.00  0.00    -0.339 N 
ATOM     14  C   UNL     1      19.572  -2.499 -20.598  0.00  0.00    -0.013 A 
ATOM     15  C   UNL     1      21.069  -3.988 -19.847  0.00  0.00    +0.050 A 
ATOM     16  C   UNL     1      21.413  -2.909 -17.621  0.00  0.00    +0.149 C 
ATOM     17  C   UNL     1      20.269  -3.692 -20.950  0.00  0.00    +0.004 A 
ATOM     18  C   UNL     1      18.320  -2.047 -21.246  0.00  0.00    +0.047 C 
ATOM     19  C   UNL     1      21.983  -5.025 -19.824  0.00  0.00    +0.026 A 
ATOM     20  C   UNL     1      20.331  -4.498 -22.100  0.00  0.00    +0.010 A 
ATOM     21  C   UNL     1      22.166  -5.648 -21.050  0.00  0.00    +0.002 A 
ATOM     22  C   UNL     1      21.389  -5.398 -22.175  0.00  0.00    +0.001 A 
ENDBRANCH  10  12
BRANCH   2  23
ATOM     23  C   UNL     1      25.938   3.075 -15.933  0.00  0.00    +0.251 C 
ATOM     24  O   UNL     1      26.022   3.157 -14.710  0.00  0.00    -0.270 OA
ATOM     25  N   UNL     1      26.984   3.438 -16.751  0.00  0.00    -0.307 N 
ATOM     26  H   UNL     1      26.878   3.350 -17.726  0.00  0.00    +0.149 HD
BRANCH  25  27
ATOM     27  C   UNL     1      28.232   3.943 -16.227  0.00  0.00    +0.139 C 
BRANCH  27  28
ATOM     28  C   UNL     1      29.076   4.559 -17.310  0.00  0.00    -0.030 A 
ATOM     29  C   UNL     1      29.477   3.793 -18.408  0.00  0.00    +0.007 A 
ATOM     30  C   UNL     1      29.434   5.914 -17.273  0.00  0.00    +0.007 A 
ATOM     31  C   UNL     1      30.241   4.367 -19.419  0.00  0.00    +0.023 A 
ATOM     32  C   UNL     1      30.193   6.485 -18.303  0.00  0.00    +0.023 A 
ATOM     33  C   UNL     1      30.629   5.718 -19.388  0.00  0.00    +0.030 A 
BRANCH  33  34
ATOM     34  N   UNL     1      31.382   6.217 -20.441  0.00  0.00    -0.333 N 
ATOM     35  C   UNL     1      32.803   6.565 -20.275  0.00  0.00    +0.086 C 
ATOM     36  C   UNL     1      31.101   5.614 -21.760  0.00  0.00    +0.086 C 
ATOM     37  C   UNL     1      33.215   7.534 -21.415  0.00  0.00    -0.060 C 
ATOM     38  C   UNL     1      31.514   6.603 -22.863  0.00  0.00    -0.060 C 
ATOM     39  N   UNL     1      32.940   6.986 -22.766  0.00  0.00    +0.380 N 
ATOM     40  C   UNL     1      33.251   7.970 -23.793  0.00  0.00    -0.096 C 
ATOM     41  H   UNL     1      33.529   6.166 -22.911  0.00  0.00    -0.082 HD
ENDBRANCH  33  34
ENDBRANCH  27  28
ENDBRANCH  25  27
ENDBRANCH   2  23
TORSDOF 5
ENDMDL
MODEL 3
REMARK VINA RESULT:    -9.494      3.885      6.536
REMARK INTER + INTRA:         -12.830
REMARK INTER:                 -12.602
REMARK INTRA:                  -0.228
REMARK UNBOUND:                -0.560
REMARK  Name = CTX-1020745
REMARK  8 active torsions:
REMARK  status: ('A' for Active; 'I' for Inactive)
REMARK    1  A    between atoms: C_2  and  C_4
REMARK    2  A    between atoms: N_9  and  C_12
REMARK    3  A    between atoms: C_12  and  C_14
REMARK    4  A    between atoms: C_15  and  C_19
REMARK    5  A    between atoms: N_22  and  C_26
REMARK    6  A    between atoms: C_23  and  C_28
REMARK    7  A    between atoms: C_24  and  N_29
REMARK    8  A    between atoms: N_38  and  C_39
REMARK                            x       y       z     vdW  Elec       q    Type
REMARK                         _______ _______ _______ _____ _____    ______ ____
ROOT
ATOM      1  S   UNL     1      25.037   2.786 -16.480  0.00  0.00    -0.088 S 
ATOM      2  C   UNL     1      26.250   2.160 -17.517  0.00  0.00    +0.074 A 
ATOM      3  C   UNL     1      23.802   2.021 -17.359  0.00  0.00    -0.003 A 
ATOM      4  C   UNL     1      25.696   1.398 -18.530  0.00  0.00    +0.026 A 
ATOM      5  C   UNL     1      24.278   1.307 -18.441  0.00  0.00    -0.019 A 
ATOM      6  C   UNL     1      22.360   2.062 -16.958  0.00  0.00    +0.062 C 
ATOM      7  C   UNL     1      23.386   0.524 -19.357  0.00  0.00    +0.144 C 
ATOM      8  C   UNL     1      21.496   1.473 -18.083  0.00  0.00    +0.113 C 
ATOM      9  N   UNL     1      22.106   0.292 -18.680  0.00  0.00    -0.292 N 
ATOM     10  C   UNL     1      21.543  -0.963 -18.844  0.00  0.00    +0.264 C 
ATOM     11  O   UNL     1      22.080  -1.732 -19.649  0.00  0.00    -0.268 OA
ENDROOT
BRANCH  10  12
ATOM     12  C   UNL     1      20.371  -1.431 -18.072  0.00  0.00    +0.108 A 
ATOM     13  N   UNL     1      19.182  -1.580 -18.804  0.00  0.00    -0.339 N 
ATOM     14  C   UNL     1      19.806  -1.001 -16.856  0.00  0.00    -0.013 A 
ATOM     15  C   UNL     1      18.506  -0.397 -18.579  0.00  0.00    +0.050 A 
ATOM     16  C   UNL     1      19.060  -2.359 -20.022  0.00  0.00    +0.149 C 
ATOM     17  C   UNL     1      18.896   0.002 -17.301  0.00  0.00    +0.004 A 
ATOM     18  C   UNL     1      20.143  -1.244 -15.435  0.00  0.00    +0.047 C 
ATOM     19  C   UNL     1      17.697   0.363 -19.402  0.00  0.00    +0.026 A 
ATOM     20  C   UNL     1      18.421   1.213 -16.768  0.00  0.00    +0.010 A 
ATOM     21  C   UNL     1      17.438   1.639 -18.923  0.00  0.00    +0.002 A 
ATOM     22  C   UNL     1      17.794   2.082 -17.654  0.00  0.00    +0.001 A 
ENDBRANCH  10  12
BRANCH   2  23
ATOM     23  C   UNL     1      27.673   2.407 -17.327  0.00  0.00    +0.251 C 
ATOM     24  O   UNL     1      28.480   1.491 -17.187  0.00  0.00    -0.270 OA
ATOM     25  N   UNL     1      28.072   3.725 -17.317  0.00  0.00    -0.307 N 
ATOM     26  H   UNL     1      27.394   4.428 -17.439  0.00  0.00    +0.149 HD
BRANCH  25  27
ATOM     27  C   UNL     1      29.452   4.110 -17.133  0.00  0.00    +0.139 C 
BRANCH  27  28
ATOM     28  C   UNL     1      30.009   4.773 -18.363  0.00  0.00    -0.030 A 
ATOM     29  C   UNL     1      30.003   4.096 -19.587  0.00  0.00    +0.007 A 
ATOM     30  C   UNL     1      30.494   6.087 -18.329  0.00  0.00    +0.007 A 
ATOM     31  C   UNL     1      30.500   4.715 -20.730  0.00  0.00    +0.023 A 
ATOM     32  C   UNL     1      30.980   6.705 -19.488  0.00  0.00    +0.023 A 
ATOM     33  C   UNL     1      31.011   6.024 -20.709  0.00  0.00    +0.030 A 
BRANCH  33  34
ATOM     34  N   UNL     1      31.478   6.573 -21.894  0.00  0.00    -0.333 N 
ATOM     35  C   UNL     1      30.569   7.227 -22.851  0.00  0.00    +0.086 C 
ATOM     36  C   UNL     1      32.785   7.259 -21.802  0.00  0.00    +0.086 C 
ATOM     37  C   UNL     1      31.259   7.274 -24.241  0.00  0.00    -0.060 C 
ATOM     38  C   UNL     1      33.441   7.279 -23.193  0.00  0.00    -0.060 C 
ATOM     39  N   UNL     1      32.585   7.938 -24.205  0.00  0.00    +0.380 N 
ATOM     40  C   UNL     1      33.232   7.867 -25.508  0.00  0.00    -0.096 C 
ATOM     41  H   UNL     1      32.452   8.919 -23.960  0.00  0.00    -0.082 HD
ENDBRANCH  33  34
ENDBRANCH  27  28
ENDBRANCH  25  27
ENDBRANCH   2  23
TORSDOF 5
ENDMDL
