REMARK  Name = CTX-1020739
REMARK  5 active torsions:
REMARK  status: ('A' for Active; 'I' for Inactive)
REMARK    1  A    between atoms: C_2  and  C_4
REMARK    2  A    between atoms: N_9  and  C_12
REMARK    3  A    between atoms: C_12  and  C_14
REMARK    4  A    between atoms: C_15  and  C_19
REMARK    5  A    between atoms: C_23  and  C_27
REMARK                            x       y       z     vdW  Elec       q    Type
REMARK                         _______ _______ _______ _____ _____    ______ ____
ROOT
ATOM      1  S   UNL     1       1.862  -0.688   0.000  0.00  0.00    -0.088 S 
ATOM      2  C   UNL     1       2.178   0.995   0.059  0.00  0.00    +0.074 A 
ATOM      3  C   UNL     1       0.185  -0.435  -0.033  0.00  0.00    -0.003 A 
ATOM      4  C   UNL     1       0.998   1.724   0.028  0.00  0.00    +0.026 A 
ATOM      5  C   UNL     1      -0.169   0.901  -0.030  0.00  0.00    -0.019 A 
ATOM      6  C   UNL     1      -0.801  -1.554  -0.077  0.00  0.00    +0.062 C 
ATOM      7  C   UNL     1      -1.604   1.370  -0.046  0.00  0.00    +0.144 C 
ATOM      8  C   UNL     1      -2.172  -1.017   0.360  0.00  0.00    +0.113 C 
ATOM      9  N   UNL     1      -2.497   0.241  -0.345  0.00  0.00    -0.290 N 
ATOM     10  C   UNL     1      -3.457   0.395  -1.353  0.00  0.00    +0.283 C 
ATOM     11  O   UNL     1      -3.507   1.438  -2.008  0.00  0.00    -0.267 OA
ENDROOT
BRANCH  10  12
ATOM     12  C   UNL     1      -4.381  -0.698  -1.623  0.00  0.00    +0.194 A 
ATOM     13  O   UNL     1      -4.836  -1.460  -0.581  0.00  0.00    -0.450 OA
ATOM     14  C   UNL     1      -4.993  -1.119  -2.801  0.00  0.00    +0.008 A 
ATOM     15  C   UNL     1      -5.654  -2.414  -1.083  0.00  0.00    +0.136 A 
ATOM     16  C   UNL     1      -5.824  -2.230  -2.446  0.00  0.00    +0.024 A 
ATOM     17  C   UNL     1      -4.809  -0.572  -4.170  0.00  0.00    +0.048 C 
ATOM     18  C   UNL     1      -6.243  -3.434  -0.342  0.00  0.00    +0.047 A 
ATOM     19  C   UNL     1      -6.693  -3.102  -3.128  0.00  0.00    +0.012 A 
ATOM     20  C   UNL     1      -7.094  -4.295  -1.039  0.00  0.00    +0.004 A 
ATOM     21  C   UNL     1      -7.327  -4.125  -2.406  0.00  0.00    +0.001 A 
ENDBRANCH  10  12
BRANCH   2  22
ATOM     22  C   UNL     1       3.528   1.539   0.146  0.00  0.00    +0.251 C 
ATOM     23  O   UNL     1       3.746   2.750   0.182  0.00  0.00    -0.270 OA
ATOM     24  N   UNL     1       4.563   0.626   0.198  0.00  0.00    -0.307 N 
ATOM     25  H   UNL     1       4.358  -0.336   0.213  0.00  0.00    +0.149 HD
BRANCH  24  26
ATOM     26  C   UNL     1       5.942   1.058   0.229  0.00  0.00    +0.140 C 
BRANCH  26  27
ATOM     27  C   UNL     1       6.830   0.067   0.936  0.00  0.00    -0.027 A 
ATOM     28  C   UNL     1       7.948  -0.485   0.307  0.00  0.00    +0.025 A 
ATOM     29  C   UNL     1       6.589  -0.271   2.273  0.00  0.00    +0.025 A 
ATOM     30  C   UNL     1       8.764  -1.346   1.030  0.00  0.00    +0.111 A 
ATOM     31  C   UNL     1       7.460  -1.141   2.910  0.00  0.00    +0.111 A 
ATOM     32  N   UNL     1       8.542  -1.688   2.317  0.00  0.00    -0.263 NA
ENDBRANCH  26  27
ENDBRANCH  24  26
ENDBRANCH   2  22
TORSDOF 4
