REMARK  Name = CTX-1020743
REMARK  8 active torsions:
REMARK  status: ('A' for Active; 'I' for Inactive)
REMARK    1  A    between atoms: C_2  and  C_4
REMARK    2  A    between atoms: N_9  and  C_12
REMARK    3  A    between atoms: C_12  and  C_14
REMARK    4  A    between atoms: C_15  and  C_19
REMARK    5  A    between atoms: C_23  and  C_27
REMARK    6  A    between atoms: C_24  and  N_28
REMARK    7  A    between atoms: C_33  and  C_37
REMARK    8  A    between atoms: N_38  and  C_39
REMARK                            x       y       z     vdW  Elec       q    Type
REMARK                         _______ _______ _______ _____ _____    ______ ____
ROOT
ATOM      1  S   UNL     1       1.792  -0.689  -0.041  0.00  0.00    -0.088 S 
ATOM      2  C   UNL     1       2.112   0.994   0.030  0.00  0.00    +0.074 A 
ATOM      3  C   UNL     1       0.106  -0.441  -0.033  0.00  0.00    -0.003 A 
ATOM      4  C   UNL     1       0.924   1.716   0.074  0.00  0.00    +0.026 A 
ATOM      5  C   UNL     1      -0.251   0.893   0.040  0.00  0.00    -0.019 A 
ATOM      6  C   UNL     1      -0.871  -1.568  -0.145  0.00  0.00    +0.062 C 
ATOM      7  C   UNL     1      -1.693   1.358   0.067  0.00  0.00    +0.144 C 
ATOM      8  C   UNL     1      -2.286  -1.069   0.188  0.00  0.00    +0.113 C 
ATOM      9  N   UNL     1      -2.567   0.263  -0.358  0.00  0.00    -0.290 N 
ATOM     10  C   UNL     1      -3.755   0.554  -1.036  0.00  0.00    +0.283 C 
ATOM     11  O   UNL     1      -4.318   1.641  -0.900  0.00  0.00    -0.267 OA
ENDROOT
BRANCH  10  12
ATOM     12  C   UNL     1      -4.108  -0.386  -2.117  0.00  0.00    +0.194 A 
ATOM     13  O   UNL     1      -3.029  -1.086  -2.627  0.00  0.00    -0.450 OA
ATOM     14  C   UNL     1      -4.983  -0.191  -3.191  0.00  0.00    +0.008 A 
ATOM     15  C   UNL     1      -2.877  -0.553  -3.867  0.00  0.00    +0.136 A 
ATOM     16  C   UNL     1      -4.058   0.064  -4.251  0.00  0.00    +0.024 A 
ATOM     17  C   UNL     1      -6.439   0.080  -3.211  0.00  0.00    +0.048 C 
ATOM     18  C   UNL     1      -1.685  -0.517  -4.568  0.00  0.00    +0.050 A 
ATOM     19  C   UNL     1      -4.066   0.807  -5.441  0.00  0.00    +0.012 A 
ATOM     20  C   UNL     1      -1.671   0.329  -5.682  0.00  0.00    -0.047 A 
ATOM     21  C   UNL     1      -2.844   0.981  -6.106  0.00  0.00    +0.004 A 
ATOM     22  C   UNL     1      -0.371   0.611  -6.381  0.00  0.00    +0.044 C 
ENDBRANCH  10  12
BRANCH   2  23
ATOM     23  C   UNL     1       3.468   1.546   0.047  0.00  0.00    +0.251 C 
ATOM     24  O   UNL     1       3.666   2.761   0.094  0.00  0.00    -0.270 OA
ATOM     25  N   UNL     1       4.517   0.652  -0.010  0.00  0.00    -0.307 N 
ATOM     26  H   UNL     1       4.313  -0.309  -0.077  0.00  0.00    +0.149 HD
BRANCH  25  27
ATOM     27  C   UNL     1       5.908   1.064   0.025  0.00  0.00    +0.139 C 
BRANCH  27  28
ATOM     28  C   UNL     1       6.655   0.626  -1.209  0.00  0.00    -0.030 A 
ATOM     29  C   UNL     1       6.235   1.054  -2.473  0.00  0.00    +0.007 A 
ATOM     30  C   UNL     1       7.807  -0.170  -1.135  0.00  0.00    +0.007 A 
ATOM     31  C   UNL     1       6.929   0.673  -3.620  0.00  0.00    +0.023 A 
ATOM     32  C   UNL     1       8.502  -0.548  -2.299  0.00  0.00    +0.023 A 
ATOM     33  C   UNL     1       8.065  -0.152  -3.568  0.00  0.00    +0.030 A 
BRANCH  33  34
ATOM     34  N   UNL     1       8.696  -0.486  -4.756  0.00  0.00    -0.333 N 
ATOM     35  C   UNL     1      10.112  -0.888  -4.797  0.00  0.00    +0.086 C 
ATOM     36  C   UNL     1       7.874  -1.250  -5.719  0.00  0.00    +0.086 C 
ATOM     37  C   UNL     1      10.647  -0.700  -6.246  0.00  0.00    -0.060 C 
ATOM     38  C   UNL     1       8.429  -1.040  -7.145  0.00  0.00    -0.060 C 
ATOM     39  N   UNL     1       9.851  -1.437  -7.261  0.00  0.00    +0.380 N 
ATOM     40  C   UNL     1      10.344  -1.162  -8.609  0.00  0.00    -0.096 C 
ATOM     41  H   UNL     1       9.943  -2.438  -7.091  0.00  0.00    -0.082 HD
ENDBRANCH  33  34
ENDBRANCH  27  28
ENDBRANCH  25  27
ENDBRANCH   2  23
TORSDOF 5
