REMARK  Name = CTX-1020746
REMARK  7 active torsions:
REMARK  status: ('A' for Active; 'I' for Inactive)
REMARK    1  A    between atoms: C_2  and  C_4
REMARK    2  A    between atoms: C_8  and  C_13
REMARK    3  A    between atoms: C_18  and  C_22
REMARK    4  A    between atoms: N_24  and  C_25
REMARK    5  A    between atoms: C_25  and  C_26
REMARK    6  A    between atoms: C_31  and  N_32
REMARK    7  A    between atoms: N_37  and  C_38
REMARK                            x       y       z     vdW  Elec       q    Type
REMARK                         _______ _______ _______ _____ _____    ______ ____
ROOT
ATOM      1  O   UNL     1       1.484  -0.155   0.618  0.00  0.00    -0.267 OA
ATOM      2  C   UNL     1       2.350  -0.897   0.146  0.00  0.00    +0.283 C 
ATOM      3  N   UNL     1       3.047  -0.522  -1.019  0.00  0.00    -0.289 N 
ATOM      4  C   UNL     1       4.345  -1.143  -1.332  0.00  0.00    +0.165 C 
ATOM      5  C   UNL     1       2.576   0.692  -1.724  0.00  0.00    +0.115 C 
ATOM      6  C   UNL     1       4.960  -0.652  -2.569  0.00  0.00    +0.080 A 
ATOM      7  C   UNL     1       3.233   1.114  -3.069  0.00  0.00    +0.074 C 
ATOM      8  N   UNL     1       6.068  -1.224  -3.138  0.00  0.00    -0.227 NA
ATOM      9  C   UNL     1       4.448   0.332  -3.363  0.00  0.00    +0.042 A 
ATOM     10  C   UNL     1       6.226  -0.614  -4.296  0.00  0.00    +0.194 A 
ATOM     11  N   UNL     1       5.254   0.373  -4.463  0.00  0.00    -0.338 N 
ATOM     12  H   UNL     1       5.166   0.985  -5.229  0.00  0.00    +0.167 HD
ENDROOT
BRANCH   2  13
ATOM     13  C   UNL     1       2.623  -2.211   0.740  0.00  0.00    +0.194 A 
ATOM     14  O   UNL     1       3.319  -3.149  -0.004  0.00  0.00    -0.450 OA
ATOM     15  C   UNL     1       1.861  -2.988   1.625  0.00  0.00    +0.008 A 
ATOM     16  C   UNL     1       3.192  -4.334   0.632  0.00  0.00    +0.136 A 
ATOM     17  C   UNL     1       2.776  -4.047   1.919  0.00  0.00    +0.024 A 
ATOM     18  C   UNL     1       0.436  -3.231   1.129  0.00  0.00    +0.048 C 
ATOM     19  C   UNL     1       3.616  -5.586   0.215  0.00  0.00    +0.047 A 
ATOM     20  C   UNL     1       3.280  -4.893   2.923  0.00  0.00    +0.012 A 
ATOM     21  C   UNL     1       4.592  -5.931   1.140  0.00  0.00    +0.004 A 
ATOM     22  C   UNL     1       4.185  -5.891   2.480  0.00  0.00    +0.001 A 
ENDBRANCH   2  13
BRANCH  10  23
ATOM     23  C   UNL     1       7.282  -0.949  -5.227  0.00  0.00    +0.280 C 
ATOM     24  O   UNL     1       7.407  -0.389  -6.330  0.00  0.00    -0.267 OA
ATOM     25  N   UNL     1       8.105  -1.958  -4.787  0.00  0.00    -0.305 N 
ATOM     26  H   UNL     1       7.971  -2.294  -3.871  0.00  0.00    +0.149 HD
BRANCH  25  27
ATOM     27  C   UNL     1       9.154  -2.559  -5.580  0.00  0.00    +0.140 C 
BRANCH  27  28
ATOM     28  C   UNL     1      10.488  -2.503  -4.887  0.00  0.00    -0.030 A 
ATOM     29  C   UNL     1      10.926  -3.534  -4.050  0.00  0.00    +0.007 A 
ATOM     30  C   UNL     1      11.334  -1.404  -5.059  0.00  0.00    +0.007 A 
ATOM     31  C   UNL     1      12.176  -3.456  -3.414  0.00  0.00    +0.023 A 
ATOM     32  C   UNL     1      12.579  -1.337  -4.416  0.00  0.00    +0.023 A 
ATOM     33  C   UNL     1      13.034  -2.356  -3.560  0.00  0.00    +0.030 A 
BRANCH  33  34
ATOM     34  N   UNL     1      14.213  -2.258  -2.855  0.00  0.00    -0.333 N 
ATOM     35  C   UNL     1      15.064  -3.424  -2.550  0.00  0.00    +0.086 C 
ATOM     36  C   UNL     1      14.857  -0.966  -2.571  0.00  0.00    +0.086 C 
ATOM     37  C   UNL     1      15.560  -3.343  -1.086  0.00  0.00    -0.060 C 
ATOM     38  C   UNL     1      15.386  -0.945  -1.115  0.00  0.00    -0.060 C 
ATOM     39  N   UNL     1      16.287  -2.081  -0.815  0.00  0.00    +0.380 N 
ATOM     40  C   UNL     1      16.748  -2.028   0.569  0.00  0.00    -0.096 C 
ATOM     41  H   UNL     1      17.114  -2.029  -1.410  0.00  0.00    -0.082 HD
ENDBRANCH  33  34
ENDBRANCH  27  28
ENDBRANCH  25  27
ENDBRANCH  10  23
TORSDOF 5
