REMARK  Name = CTX-1020748
REMARK  7 active torsions:
REMARK  status: ('A' for Active; 'I' for Inactive)
REMARK    1  A    between atoms: C_3  and  C_6
REMARK    2  A    between atoms: N_5  and  C_9
REMARK    3  A    between atoms: C_22  and  C_23
REMARK    4  A    between atoms: N_25  and  C_26
REMARK    5  A    between atoms: C_26  and  C_27
REMARK    6  A    between atoms: C_32  and  N_33
REMARK    7  A    between atoms: N_38  and  C_39
REMARK                            x       y       z     vdW  Elec       q    Type
REMARK                         _______ _______ _______ _____ _____    ______ ____
ROOT
ATOM      1  C   UNL     1       4.338  -3.170   0.518  0.00  0.00    +0.265 C 
ATOM      2  O   UNL     1       4.381  -3.056   1.739  0.00  0.00    -0.268 OA
ATOM      3  N   UNL     1       4.402  -4.530  -0.074  0.00  0.00    -0.292 N 
ATOM      4  C   UNL     1       5.169  -5.939   0.440  0.00  0.00    +0.144 C 
ATOM      5  C   UNL     1       3.053  -4.739  -0.455  0.00  0.00    +0.113 C 
ATOM      6  C   UNL     1       4.383  -7.348   0.020  0.00  0.00    -0.019 A 
ATOM      7  C   UNL     1       2.814  -5.930  -1.328  0.00  0.00    +0.062 C 
ATOM      8  C   UNL     1       3.472  -7.233  -0.987  0.00  0.00    -0.003 A 
ATOM      9  C   UNL     1       4.217  -8.791   0.460  0.00  0.00    +0.026 A 
ATOM     10  S   UNL     1       2.763  -8.646  -1.599  0.00  0.00    -0.088 S 
ATOM     11  C   UNL     1       2.996  -9.338  -0.049  0.00  0.00    +0.074 A 
ENDROOT
BRANCH   1  14
ATOM     12 CL   UNL     1       4.831  -2.750  -2.904  0.00  0.00    -0.081 Cl
ATOM     13  C   UNL     1       4.091  -1.696  -1.770  0.00  0.00    +0.079 A 
ATOM     14  C   UNL     1       3.909  -1.943  -0.392  0.00  0.00    +0.124 A 
ATOM     15  C   UNL     1       3.567  -0.404  -2.161  0.00  0.00    +0.019 A 
ATOM     16  N   UNL     1       3.211  -0.771   0.015  0.00  0.00    -0.338 N 
ATOM     17  C   UNL     1       3.013   0.162  -1.021  0.00  0.00    +0.051 A 
ATOM     18  C   UNL     1       3.490   0.369  -3.368  0.00  0.00    +0.011 A 
ATOM     19  C   UNL     1       2.640  -0.454   1.313  0.00  0.00    +0.149 C 
ATOM     20  C   UNL     1       2.388   1.445  -1.032  0.00  0.00    +0.026 A 
ATOM     21  C   UNL     1       2.885   1.658  -3.379  0.00  0.00    +0.001 A 
ATOM     22  C   UNL     1       2.338   2.165  -2.224  0.00  0.00    +0.002 A 
ENDBRANCH   1  14
BRANCH  11  23
ATOM     23  C   UNL     1       1.935 -10.253   0.381  0.00  0.00    +0.251 C 
ATOM     24  O   UNL     1       1.970 -11.441   0.275  0.00  0.00    -0.270 OA
ATOM     25  N   UNL     1       0.735  -9.630   0.837  0.00  0.00    -0.307 N 
ATOM     26  H   UNL     1      -0.016 -10.222   1.069  0.00  0.00    +0.149 HD
BRANCH  25  27
ATOM     27  C   UNL     1       0.525  -8.207   0.988  0.00  0.00    +0.139 C 
BRANCH  27  28
ATOM     28  C   UNL     1      -0.453  -7.837   2.069  0.00  0.00    -0.030 A 
ATOM     29  C   UNL     1      -0.077  -7.927   3.426  0.00  0.00    +0.007 A 
ATOM     30  C   UNL     1      -1.726  -7.352   1.780  0.00  0.00    +0.007 A 
ATOM     31  C   UNL     1      -0.960  -7.580   4.433  0.00  0.00    +0.023 A 
ATOM     32  C   UNL     1      -2.605  -7.005   2.817  0.00  0.00    +0.023 A 
ATOM     33  C   UNL     1      -2.249  -7.152   4.164  0.00  0.00    +0.030 A 
BRANCH  33  34
ATOM     34  N   UNL     1      -3.164  -6.930   5.191  0.00  0.00    -0.333 N 
ATOM     35  C   UNL     1      -2.757  -6.388   6.489  0.00  0.00    +0.086 C 
ATOM     36  C   UNL     1      -4.593  -7.127   4.985  0.00  0.00    +0.086 C 
ATOM     37  C   UNL     1      -3.412  -7.195   7.630  0.00  0.00    -0.060 C 
ATOM     38  C   UNL     1      -5.217  -7.871   6.188  0.00  0.00    -0.060 C 
ATOM     39  N   UNL     1      -4.881  -7.232   7.482  0.00  0.00    +0.380 N 
ATOM     40  C   UNL     1      -5.501  -7.942   8.595  0.00  0.00    -0.096 C 
ATOM     41  H   UNL     1      -5.247  -6.280   7.493  0.00  0.00    -0.082 HD
ENDBRANCH  33  34
ENDBRANCH  27  28
ENDBRANCH  25  27
ENDBRANCH  11  23
TORSDOF 5
