REMARK  Name = CTX-1020745
REMARK  8 active torsions:
REMARK  status: ('A' for Active; 'I' for Inactive)
REMARK    1  A    between atoms: C_2  and  C_4
REMARK    2  A    between atoms: N_9  and  C_12
REMARK    3  A    between atoms: C_12  and  C_14
REMARK    4  A    between atoms: C_15  and  C_19
REMARK    5  A    between atoms: N_22  and  C_26
REMARK    6  A    between atoms: C_23  and  C_28
REMARK    7  A    between atoms: C_24  and  N_29
REMARK    8  A    between atoms: N_38  and  C_39
REMARK                            x       y       z     vdW  Elec       q    Type
REMARK                         _______ _______ _______ _____ _____    ______ ____
ROOT
ATOM      1  S   UNL     1       1.885  -0.725   0.027  0.00  0.00    -0.088 S 
ATOM      2  C   UNL     1       2.196   0.960   0.090  0.00  0.00    +0.074 A 
ATOM      3  C   UNL     1       0.205  -0.477  -0.004  0.00  0.00    -0.003 A 
ATOM      4  C   UNL     1       1.017   1.685   0.110  0.00  0.00    +0.026 A 
ATOM      5  C   UNL     1      -0.141   0.859   0.049  0.00  0.00    -0.019 A 
ATOM      6  C   UNL     1      -0.788  -1.589  -0.145  0.00  0.00    +0.062 C 
ATOM      7  C   UNL     1      -1.561   1.335   0.010  0.00  0.00    +0.144 C 
ATOM      8  C   UNL     1      -2.205  -1.047   0.095  0.00  0.00    +0.113 C 
ATOM      9  N   UNL     1      -2.403   0.258  -0.522  0.00  0.00    -0.292 N 
ATOM     10  C   UNL     1      -3.402   0.637  -1.403  0.00  0.00    +0.264 C 
ATOM     11  O   UNL     1      -3.598   1.847  -1.562  0.00  0.00    -0.268 OA
ENDROOT
BRANCH  10  12
ATOM     12  C   UNL     1      -4.201  -0.331  -2.185  0.00  0.00    +0.108 A 
ATOM     13  N   UNL     1      -4.911   0.205  -3.272  0.00  0.00    -0.339 N 
ATOM     14  C   UNL     1      -5.132  -1.317  -1.804  0.00  0.00    -0.013 A 
ATOM     15  C   UNL     1      -6.178   0.416  -2.766  0.00  0.00    +0.050 A 
ATOM     16  C   UNL     1      -4.318   1.010  -4.323  0.00  0.00    +0.149 C 
ATOM     17  C   UNL     1      -6.350  -0.576  -1.801  0.00  0.00    +0.004 A 
ATOM     18  C   UNL     1      -4.997  -2.694  -1.278  0.00  0.00    +0.047 C 
ATOM     19  C   UNL     1      -7.102   1.416  -3.005  0.00  0.00    +0.026 A 
ATOM     20  C   UNL     1      -7.534  -0.623  -1.045  0.00  0.00    +0.010 A 
ATOM     21  C   UNL     1      -8.144   1.458  -2.090  0.00  0.00    +0.002 A 
ATOM     22  C   UNL     1      -8.366   0.489  -1.117  0.00  0.00    +0.001 A 
ENDBRANCH  10  12
BRANCH   2  23
ATOM     23  C   UNL     1       3.537   1.528   0.109  0.00  0.00    +0.251 C 
ATOM     24  O   UNL     1       3.731   2.740   0.169  0.00  0.00    -0.270 OA
ATOM     25  N   UNL     1       4.583   0.634   0.060  0.00  0.00    -0.307 N 
ATOM     26  H   UNL     1       4.384  -0.329   0.019  0.00  0.00    +0.149 HD
BRANCH  25  27
ATOM     27  C   UNL     1       5.963   1.062   0.067  0.00  0.00    +0.139 C 
BRANCH  27  28
ATOM     28  C   UNL     1       6.683   0.624  -1.179  0.00  0.00    -0.030 A 
ATOM     29  C   UNL     1       6.240   1.055  -2.433  0.00  0.00    +0.007 A 
ATOM     30  C   UNL     1       7.833  -0.175  -1.115  0.00  0.00    +0.007 A 
ATOM     31  C   UNL     1       6.917   0.667  -3.585  0.00  0.00    +0.023 A 
ATOM     32  C   UNL     1       8.514  -0.550  -2.280  0.00  0.00    +0.023 A 
ATOM     33  C   UNL     1       8.058  -0.153  -3.541  0.00  0.00    +0.030 A 
BRANCH  33  34
ATOM     34  N   UNL     1       8.682  -0.487  -4.734  0.00  0.00    -0.333 N 
ATOM     35  C   UNL     1      10.103  -0.873  -4.779  0.00  0.00    +0.086 C 
ATOM     36  C   UNL     1       7.858  -1.266  -5.682  0.00  0.00    +0.086 C 
ATOM     37  C   UNL     1      10.623  -0.690  -6.230  0.00  0.00    -0.060 C 
ATOM     38  C   UNL     1       8.397  -1.055  -7.107  0.00  0.00    -0.060 C 
ATOM     39  N   UNL     1       9.821  -1.438  -7.229  0.00  0.00    +0.380 N 
ATOM     40  C   UNL     1      10.287  -1.155  -8.579  0.00  0.00    -0.096 C 
ATOM     41  H   UNL     1       9.927  -2.437  -7.050  0.00  0.00    -0.082 HD
ENDBRANCH  33  34
ENDBRANCH  27  28
ENDBRANCH  25  27
ENDBRANCH   2  23
TORSDOF 5
