REMARK  Name = CTX-1020741
REMARK  7 active torsions:
REMARK  status: ('A' for Active; 'I' for Inactive)
REMARK    1  A    between atoms: C_2  and  C_4
REMARK    2  A    between atoms: N_9  and  C_12
REMARK    3  A    between atoms: C_12  and  C_14
REMARK    4  A    between atoms: C_15  and  C_19
REMARK    5  A    between atoms: C_23  and  C_27
REMARK    6  A    between atoms: C_24  and  O_28
REMARK    7  A    between atoms: O_28  and  C_31
REMARK                            x       y       z     vdW  Elec       q    Type
REMARK                         _______ _______ _______ _____ _____    ______ ____
ROOT
ATOM      1  S   UNL     1       1.778  -0.716  -0.040  0.00  0.00    -0.088 S 
ATOM      2  C   UNL     1       2.101   0.966   0.027  0.00  0.00    +0.074 A 
ATOM      3  C   UNL     1       0.094  -0.465  -0.029  0.00  0.00    -0.003 A 
ATOM      4  C   UNL     1       0.916   1.687   0.075  0.00  0.00    +0.026 A 
ATOM      5  C   UNL     1      -0.261   0.869   0.043  0.00  0.00    -0.019 A 
ATOM      6  C   UNL     1      -0.888  -1.589  -0.143  0.00  0.00    +0.062 C 
ATOM      7  C   UNL     1      -1.701   1.340   0.068  0.00  0.00    +0.144 C 
ATOM      8  C   UNL     1      -2.300  -1.088   0.203  0.00  0.00    +0.113 C 
ATOM      9  N   UNL     1      -2.584   0.244  -0.344  0.00  0.00    -0.290 N 
ATOM     10  C   UNL     1      -3.782   0.536  -1.011  0.00  0.00    +0.283 C 
ATOM     11  O   UNL     1      -4.326   1.634  -0.889  0.00  0.00    -0.267 OA
ENDROOT
BRANCH  10  12
ATOM     12  C   UNL     1      -4.172  -0.430  -2.060  0.00  0.00    +0.194 A 
ATOM     13  O   UNL     1      -3.106  -1.150  -2.571  0.00  0.00    -0.450 OA
ATOM     14  C   UNL     1      -5.045  -0.244  -3.139  0.00  0.00    +0.008 A 
ATOM     15  C   UNL     1      -2.947  -0.614  -3.808  0.00  0.00    +0.136 A 
ATOM     16  C   UNL     1      -4.121   0.014  -4.198  0.00  0.00    +0.024 A 
ATOM     17  C   UNL     1      -6.513  -0.053  -3.161  0.00  0.00    +0.048 C 
ATOM     18  C   UNL     1      -1.761  -0.611  -4.515  0.00  0.00    +0.047 A 
ATOM     19  C   UNL     1      -4.118   0.738  -5.399  0.00  0.00    +0.012 A 
ATOM     20  C   UNL     1      -1.742   0.203  -5.649  0.00  0.00    +0.004 A 
ATOM     21  C   UNL     1      -2.896   0.872  -6.078  0.00  0.00    +0.001 A 
ENDBRANCH  10  12
BRANCH   2  22
ATOM     22  C   UNL     1       3.453   1.523   0.027  0.00  0.00    +0.251 C 
ATOM     23  O   UNL     1       3.654   2.736   0.077  0.00  0.00    -0.270 OA
ATOM     24  N   UNL     1       4.502   0.628  -0.035  0.00  0.00    -0.307 N 
ATOM     25  H   UNL     1       4.302  -0.333  -0.111  0.00  0.00    +0.149 HD
BRANCH  24  26
ATOM     26  C   UNL     1       5.889   1.050   0.007  0.00  0.00    +0.139 C 
BRANCH  26  27
ATOM     27  C   UNL     1       6.655   0.642  -1.228  0.00  0.00    -0.030 A 
ATOM     28  C   UNL     1       6.250   1.087  -2.494  0.00  0.00    +0.009 A 
ATOM     29  C   UNL     1       7.829  -0.120  -1.132  0.00  0.00    +0.009 A 
ATOM     30  C   UNL     1       6.990   0.767  -3.641  0.00  0.00    +0.046 A 
ATOM     31  C   UNL     1       8.565  -0.436  -2.278  0.00  0.00    +0.046 A 
ATOM     32  C   UNL     1       8.153   0.001  -3.537  0.00  0.00    +0.120 A 
BRANCH  32  33
ATOM     33  O   UNL     1       8.966  -0.373  -4.571  0.00  0.00    -0.495 OA
ATOM     34  C   UNL     1       8.602   0.071  -5.874  0.00  0.00    +0.277 C 
ENDBRANCH  32  33
ENDBRANCH  26  27
ENDBRANCH  24  26
ENDBRANCH   2  22
TORSDOF 5
