REMARK  Name = CTX-1020742
REMARK  7 active torsions:
REMARK  status: ('A' for Active; 'I' for Inactive)
REMARK    1  A    between atoms: C_2  and  C_5
REMARK    2  A    between atoms: C_4  and  C_8
REMARK    3  A    between atoms: C_21  and  C_22
REMARK    4  A    between atoms: N_24  and  C_25
REMARK    5  A    between atoms: C_25  and  C_26
REMARK    6  A    between atoms: C_31  and  N_32
REMARK    7  A    between atoms: N_37  and  C_38
REMARK                            x       y       z     vdW  Elec       q    Type
REMARK                         _______ _______ _______ _____ _____    ______ ____
ROOT
ATOM      1  C   UNL     1       9.521   8.592  -0.041  0.00  0.00    +0.254 C 
ATOM      2  O   UNL     1      10.354   8.920   0.827  0.00  0.00    -0.269 OA
ATOM      3  N   UNL     1       9.365   7.118  -0.213  0.00  0.00    -0.292 N 
ATOM      4  C   UNL     1       8.422   5.926  -0.880  0.00  0.00    +0.144 C 
ATOM      5  C   UNL     1      10.622   6.613   0.282  0.00  0.00    +0.113 C 
ATOM      6  C   UNL     1       8.916   4.393  -0.456  0.00  0.00    -0.019 A 
ATOM      7  C   UNL     1      10.686   5.306   0.956  0.00  0.00    +0.062 C 
ATOM      8  C   UNL     1       9.694   4.316   0.657  0.00  0.00    -0.003 A 
ATOM      9  C   UNL     1       9.093   2.982  -1.018  0.00  0.00    +0.026 A 
ATOM     10  S   UNL     1       9.937   2.782   1.331  0.00  0.00    -0.088 S 
ATOM     11  C   UNL     1      10.109   2.265  -0.298  0.00  0.00    +0.074 A 
ENDROOT
BRANCH   1  13
ATOM     12  S   UNL     1       7.470  10.472  -0.370  0.00  0.00    -0.082 S 
ATOM     13  C   UNL     1       9.038   9.844  -0.665  0.00  0.00    +0.078 A 
ATOM     14  C   UNL     1       8.005  12.132  -0.286  0.00  0.00    +0.038 A 
ATOM     15  C   UNL     1       9.947  10.933  -0.845  0.00  0.00    -0.023 A 
ATOM     16  C   UNL     1       9.362  12.236  -0.583  0.00  0.00    -0.004 A 
ATOM     17  C   UNL     1       7.272  13.283   0.050  0.00  0.00    +0.126 A 
ATOM     18  C   UNL     1      11.461  10.838  -0.933  0.00  0.00    +0.046 C 
ATOM     19  C   UNL     1       9.978  13.511  -0.482  0.00  0.00    +0.029 A 
ATOM     20  N   UNL     1       7.866  14.503   0.078  0.00  0.00    -0.262 NA
ATOM     21  C   UNL     1       9.183  14.593  -0.163  0.00  0.00    +0.111 A 
ENDBRANCH   1  13
BRANCH  11  22
ATOM     22  C   UNL     1      11.152   1.230  -0.485  0.00  0.00    +0.251 C 
ATOM     23  O   UNL     1      10.934   0.053  -0.792  0.00  0.00    -0.270 OA
ATOM     24  N   UNL     1      12.450   1.703  -0.204  0.00  0.00    -0.307 N 
ATOM     25  H   UNL     1      12.558   2.680  -0.156  0.00  0.00    +0.149 HD
BRANCH  24  26
ATOM     26  C   UNL     1      13.658   0.903   0.026  0.00  0.00    +0.139 C 
BRANCH  26  27
ATOM     27  C   UNL     1      14.766   1.738   0.693  0.00  0.00    -0.030 A 
ATOM     28  C   UNL     1      14.922   1.766   2.079  0.00  0.00    +0.007 A 
ATOM     29  C   UNL     1      15.751   2.429  -0.068  0.00  0.00    +0.007 A 
ATOM     30  C   UNL     1      15.910   2.568   2.711  0.00  0.00    +0.023 A 
ATOM     31  C   UNL     1      16.726   3.216   0.584  0.00  0.00    +0.023 A 
ATOM     32  C   UNL     1      16.791   3.389   1.980  0.00  0.00    +0.030 A 
BRANCH  32  33
ATOM     33  N   UNL     1      17.648   4.287   2.605  0.00  0.00    -0.333 N 
ATOM     34  C   UNL     1      18.264   4.085   3.935  0.00  0.00    +0.086 C 
ATOM     35  C   UNL     1      18.114   5.512   1.924  0.00  0.00    +0.086 C 
ATOM     36  C   UNL     1      18.117   5.359   4.812  0.00  0.00    -0.060 C 
ATOM     37  C   UNL     1      17.995   6.747   2.859  0.00  0.00    -0.060 C 
ATOM     38  N   UNL     1      18.683   6.559   4.155  0.00  0.00    +0.380 N 
ATOM     39  C   UNL     1      18.542   7.742   5.001  0.00  0.00    -0.096 C 
ATOM     40  H   UNL     1      19.682   6.425   3.999  0.00  0.00    -0.082 HD
ENDBRANCH  32  33
ENDBRANCH  26  27
ENDBRANCH  24  26
ENDBRANCH  11  22
TORSDOF 5
