MODEL 1
REMARK VINA RESULT:   -11.516      0.000      0.000
REMARK INTER + INTRA:         -16.504
REMARK INTER:                 -15.556
REMARK INTRA:                  -0.948
REMARK UNBOUND:                -0.948
REMARK  Name = CTX-1020902
REMARK  8 active torsions:
REMARK  status: ('A' for Active; 'I' for Inactive)
REMARK    1  A    between atoms: C_2  and  C_4
REMARK    2  A    between atoms: C_8  and  C_13
REMARK    3  A    between atoms: C_18  and  C_23
REMARK    4  A    between atoms: C_23  and  N_24
REMARK    5  A    between atoms: N_24  and  C_25
REMARK    6  A    between atoms: C_25  and  C_26
REMARK    7  A    between atoms: C_31  and  N_32
REMARK    8  A    between atoms: N_37  and  C_38
REMARK                            x       y       z     vdW  Elec       q    Type
REMARK                         _______ _______ _______ _____ _____    ______ ____
ROOT
ATOM      1  O   UNL     1      18.393   2.456 -15.547  0.00  0.00    -0.267 OA
ATOM      2  C   UNL     1      19.402   2.765 -16.179  0.00  0.00    +0.283 C 
ATOM      3  N   UNL     1      20.438   3.413 -15.498  0.00  0.00    -0.289 N 
ATOM      4  C   UNL     1      21.577   4.078 -16.106  0.00  0.00    +0.163 C 
ATOM      5  C   UNL     1      20.544   3.249 -14.053  0.00  0.00    +0.113 C 
ATOM      6  C   UNL     1      22.887   3.434 -15.702  0.00  0.00    +0.062 A 
ATOM      7  C   UNL     1      21.717   2.311 -13.744  0.00  0.00    +0.056 C 
ATOM      8  N   UNL     1      23.965   3.682 -16.491  0.00  0.00    -0.257 NA
ATOM      9  C   UNL     1      22.955   2.650 -14.542  0.00  0.00    -0.023 A 
ATOM     10  C   UNL     1      25.158   3.136 -16.142  0.00  0.00    +0.025 A 
ATOM     11  C   UNL     1      24.190   2.102 -14.196  0.00  0.00    +0.007 A 
ATOM     12  C   UNL     1      25.302   2.348 -15.000  0.00  0.00    +0.021 A 
ENDROOT
BRANCH   2  13
ATOM     13  C   UNL     1      19.563   2.362 -17.583  0.00  0.00    +0.194 A 
ATOM     14  O   UNL     1      18.355   2.052 -18.201  0.00  0.00    -0.450 OA
ATOM     15  C   UNL     1      20.504   1.523 -18.187  0.00  0.00    +0.008 A 
ATOM     16  C   UNL     1      18.473   0.756 -18.616  0.00  0.00    +0.136 A 
ATOM     17  C   UNL     1      19.769   0.314 -18.401  0.00  0.00    +0.024 A 
ATOM     18  C   UNL     1      21.689   1.866 -19.019  0.00  0.00    +0.048 C 
ATOM     19  C   UNL     1      17.464  -0.020 -19.163  0.00  0.00    +0.047 A 
ATOM     20  C   UNL     1      20.082  -1.030 -18.670  0.00  0.00    +0.012 A 
ATOM     21  C   UNL     1      17.788  -1.355 -19.414  0.00  0.00    +0.004 A 
ATOM     22  C   UNL     1      19.060  -1.865 -19.133  0.00  0.00    +0.001 A 
ENDBRANCH   2  13
BRANCH  10  23
ATOM     23  C   UNL     1      26.327   3.279 -17.107  0.00  0.00    -0.026 C 
BRANCH  23  24
ATOM     24  N   UNL     1      27.649   3.036 -16.514  0.00  0.00    +0.385 N 
ATOM     25  H   UNL     1      28.218   2.499 -17.170  0.00  0.00    -0.085 HD
ATOM     26  H   UNL     1      27.533   2.515 -15.645  0.00  0.00    -0.085 HD
BRANCH  24  27
ATOM     27  C   UNL     1      28.315   4.307 -16.224  0.00  0.00    -0.046 C 
BRANCH  27  28
ATOM     28  C   UNL     1      29.136   4.808 -17.389  0.00  0.00    -0.064 A 
ATOM     29  C   UNL     1      29.514   3.944 -18.419  0.00  0.00    +0.003 A 
ATOM     30  C   UNL     1      29.488   6.159 -17.496  0.00  0.00    +0.003 A 
ATOM     31  C   UNL     1      30.224   4.425 -19.526  0.00  0.00    +0.023 A 
ATOM     32  C   UNL     1      30.187   6.632 -18.616  0.00  0.00    +0.023 A 
ATOM     33  C   UNL     1      30.570   5.780 -19.657  0.00  0.00    +0.030 A 
BRANCH  33  34
ATOM     34  N   UNL     1      31.188   6.213 -20.820  0.00  0.00    -0.333 N 
ATOM     35  C   UNL     1      32.595   6.637 -20.822  0.00  0.00    +0.086 C 
ATOM     36  C   UNL     1      30.773   5.612 -22.100  0.00  0.00    +0.086 C 
ATOM     37  C   UNL     1      32.811   7.648 -21.975  0.00  0.00    -0.060 C 
ATOM     38  C   UNL     1      31.022   6.625 -23.245  0.00  0.00    -0.060 C 
ATOM     39  N   UNL     1      32.422   7.111 -23.301  0.00  0.00    +0.380 N 
ATOM     40  C   UNL     1      32.562   8.142 -24.328  0.00  0.00    -0.096 C 
ATOM     41  H   UNL     1      33.038   6.334 -23.542  0.00  0.00    -0.082 HD
ENDBRANCH  33  34
ENDBRANCH  27  28
ENDBRANCH  24  27
ENDBRANCH  23  24
ENDBRANCH  10  23
TORSDOF 6
ENDMDL
MODEL 2
REMARK VINA RESULT:   -11.326      4.328      8.597
REMARK INTER + INTRA:         -16.246
REMARK INTER:                 -14.332
REMARK INTRA:                  -1.914
REMARK UNBOUND:                -0.948
REMARK  Name = CTX-1020902
REMARK  8 active torsions:
REMARK  status: ('A' for Active; 'I' for Inactive)
REMARK    1  A    between atoms: C_2  and  C_4
REMARK    2  A    between atoms: C_8  and  C_13
REMARK    3  A    between atoms: C_18  and  C_23
REMARK    4  A    between atoms: C_23  and  N_24
REMARK    5  A    between atoms: N_24  and  C_25
REMARK    6  A    between atoms: C_25  and  C_26
REMARK    7  A    between atoms: C_31  and  N_32
REMARK    8  A    between atoms: N_37  and  C_38
REMARK                            x       y       z     vdW  Elec       q    Type
REMARK                         _______ _______ _______ _____ _____    ______ ____
ROOT
ATOM      1  O   UNL     1      23.379  -3.126 -22.427  0.00  0.00    -0.267 OA
ATOM      2  C   UNL     1      22.420  -2.422 -22.118  0.00  0.00    +0.283 C 
ATOM      3  N   UNL     1      21.340  -3.024 -21.463  0.00  0.00    -0.289 N 
ATOM      4  C   UNL     1      20.030  -2.433 -21.251  0.00  0.00    +0.163 C 
ATOM      5  C   UNL     1      21.562  -4.262 -20.726  0.00  0.00    +0.113 C 
ATOM      6  C   UNL     1      19.714  -2.281 -19.778  0.00  0.00    +0.062 A 
ATOM      7  C   UNL     1      21.545  -3.956 -19.223  0.00  0.00    +0.056 C 
ATOM      8  N   UNL     1      18.737  -1.397 -19.444  0.00  0.00    -0.257 NA
ATOM      9  C   UNL     1      20.394  -3.057 -18.829  0.00  0.00    -0.023 A 
ATOM     10  C   UNL     1      18.416  -1.255 -18.133  0.00  0.00    +0.025 A 
ATOM     11  C   UNL     1      20.047  -2.902 -17.487  0.00  0.00    +0.007 A 
ATOM     12  C   UNL     1      19.048  -1.996 -17.135  0.00  0.00    +0.021 A 
ENDROOT
BRANCH   2  13
ATOM     13  C   UNL     1      22.456  -0.968 -22.325  0.00  0.00    +0.194 A 
ATOM     14  O   UNL     1      22.688  -0.614 -23.651  0.00  0.00    -0.450 OA
ATOM     15  C   UNL     1      23.056   0.044 -21.571  0.00  0.00    +0.008 A 
ATOM     16  C   UNL     1      23.832   0.132 -23.642  0.00  0.00    +0.136 A 
ATOM     17  C   UNL     1      24.223   0.368 -22.333  0.00  0.00    +0.024 A 
ATOM     18  C   UNL     1      22.441   1.032 -20.643  0.00  0.00    +0.048 C 
ATOM     19  C   UNL     1      24.517   0.586 -24.756  0.00  0.00    +0.047 A 
ATOM     20  C   UNL     1      25.436   1.037 -22.097  0.00  0.00    +0.012 A 
ATOM     21  C   UNL     1      25.725   1.240 -24.505  0.00  0.00    +0.004 A 
ATOM     22  C   UNL     1      26.201   1.426 -23.202  0.00  0.00    +0.001 A 
ENDBRANCH   2  13
BRANCH  10  23
ATOM     23  C   UNL     1      17.438  -0.154 -17.744  0.00  0.00    -0.026 C 
BRANCH  23  24
ATOM     24  N   UNL     1      17.915   0.749 -16.688  0.00  0.00    +0.385 N 
ATOM     25  H   UNL     1      18.628   0.272 -16.134  0.00  0.00    -0.085 HD
ATOM     26  H   UNL     1      17.129   1.011 -16.094  0.00  0.00    -0.085 HD
BRANCH  24  27
ATOM     27  C   UNL     1      18.491   1.959 -17.278  0.00  0.00    -0.046 C 
BRANCH  27  28
ATOM     28  C   UNL     1      19.968   2.095 -16.989  0.00  0.00    -0.064 A 
ATOM     29  C   UNL     1      20.874   1.134 -17.442  0.00  0.00    +0.003 A 
ATOM     30  C   UNL     1      20.471   3.213 -16.313  0.00  0.00    +0.003 A 
ATOM     31  C   UNL     1      22.248   1.294 -17.223  0.00  0.00    +0.023 A 
ATOM     32  C   UNL     1      21.850   3.370 -16.112  0.00  0.00    +0.023 A 
ATOM     33  C   UNL     1      22.771   2.418 -16.562  0.00  0.00    +0.030 A 
BRANCH  33  34
ATOM     34  N   UNL     1      24.146   2.567 -16.461  0.00  0.00    -0.333 N 
ATOM     35  C   UNL     1      24.826   2.490 -15.161  0.00  0.00    +0.086 C 
ATOM     36  C   UNL     1      24.987   2.088 -17.573  0.00  0.00    +0.086 C 
ATOM     37  C   UNL     1      26.133   3.319 -15.231  0.00  0.00    -0.060 C 
ATOM     38  C   UNL     1      26.300   2.908 -17.611  0.00  0.00    -0.060 C 
ATOM     39  N   UNL     1      27.038   2.889 -16.323  0.00  0.00    +0.380 N 
ATOM     40  C   UNL     1      28.204   3.767 -16.393  0.00  0.00    -0.096 C 
ATOM     41  H   UNL     1      27.363   1.940 -16.137  0.00  0.00    -0.082 HD
ENDBRANCH  33  34
ENDBRANCH  27  28
ENDBRANCH  24  27
ENDBRANCH  23  24
ENDBRANCH  10  23
TORSDOF 6
ENDMDL
MODEL 3
REMARK VINA RESULT:   -11.256      3.945      5.466
REMARK INTER + INTRA:         -16.152
REMARK INTER:                 -15.502
REMARK INTRA:                  -0.650
REMARK UNBOUND:                -0.948
REMARK  Name = CTX-1020902
REMARK  8 active torsions:
REMARK  status: ('A' for Active; 'I' for Inactive)
REMARK    1  A    between atoms: C_2  and  C_4
REMARK    2  A    between atoms: C_8  and  C_13
REMARK    3  A    between atoms: C_18  and  C_23
REMARK    4  A    between atoms: C_23  and  N_24
REMARK    5  A    between atoms: N_24  and  C_25
REMARK    6  A    between atoms: C_25  and  C_26
REMARK    7  A    between atoms: C_31  and  N_32
REMARK    8  A    between atoms: N_37  and  C_38
REMARK                            x       y       z     vdW  Elec       q    Type
REMARK                         _______ _______ _______ _____ _____    ______ ____
ROOT
ATOM      1  O   UNL     1      18.247  -0.852 -19.221  0.00  0.00    -0.267 OA
ATOM      2  C   UNL     1      19.408  -0.490 -19.040  0.00  0.00    +0.283 C 
ATOM      3  N   UNL     1      19.660   0.878 -18.893  0.00  0.00    -0.289 N 
ATOM      4  C   UNL     1      20.964   1.517 -18.930  0.00  0.00    +0.163 C 
ATOM      5  C   UNL     1      18.581   1.751 -18.446  0.00  0.00    +0.113 C 
ATOM      6  C   UNL     1      21.293   2.203 -17.621  0.00  0.00    +0.062 A 
ATOM      7  C   UNL     1      18.832   2.144 -16.985  0.00  0.00    +0.056 C 
ATOM      8  N   UNL     1      22.602   2.476 -17.380  0.00  0.00    -0.257 NA
ATOM      9  C   UNL     1      20.265   2.554 -16.735  0.00  0.00    -0.023 A 
ATOM     10  C   UNL     1      22.925   3.111 -16.224  0.00  0.00    +0.025 A 
ATOM     11  C   UNL     1      20.616   3.210 -15.555  0.00  0.00    +0.007 A 
ATOM     12  C   UNL     1      21.956   3.494 -15.297  0.00  0.00    +0.021 A 
ENDROOT
BRANCH   2  13
ATOM     13  C   UNL     1      20.485  -1.475 -18.869  0.00  0.00    +0.194 A 
ATOM     14  O   UNL     1      21.725  -1.003 -19.290  0.00  0.00    -0.450 OA
ATOM     15  C   UNL     1      20.512  -2.848 -19.131  0.00  0.00    +0.008 A 
ATOM     16  C   UNL     1      22.137  -1.864 -20.267  0.00  0.00    +0.136 A 
ATOM     17  C   UNL     1      21.255  -2.930 -20.351  0.00  0.00    +0.024 A 
ATOM     18  C   UNL     1      20.445  -3.998 -18.189  0.00  0.00    +0.048 C 
ATOM     19  C   UNL     1      23.256  -1.711 -21.068  0.00  0.00    +0.047 A 
ATOM     20  C   UNL     1      21.440  -3.886 -21.364  0.00  0.00    +0.012 A 
ATOM     21  C   UNL     1      23.421  -2.663 -22.076  0.00  0.00    +0.004 A 
ATOM     22  C   UNL     1      22.507  -3.709 -22.251  0.00  0.00    +0.001 A 
ENDBRANCH   2  13
BRANCH  10  23
ATOM     23  C   UNL     1      24.400   3.275 -15.879  0.00  0.00    -0.026 C 
BRANCH  23  24
ATOM     24  N   UNL     1      25.288   3.452 -17.036  0.00  0.00    +0.385 N 
ATOM     25  H   UNL     1      26.076   4.042 -16.768  0.00  0.00    -0.085 HD
ATOM     26  H   UNL     1      24.764   3.891 -17.792  0.00  0.00    -0.085 HD
BRANCH  24  27
ATOM     27  C   UNL     1      25.789   2.154 -17.492  0.00  0.00    -0.046 C 
BRANCH  27  28
ATOM     28  C   UNL     1      25.835   2.051 -18.998  0.00  0.00    -0.064 A 
ATOM     29  C   UNL     1      24.659   1.943 -19.742  0.00  0.00    +0.003 A 
ATOM     30  C   UNL     1      27.051   2.119 -19.690  0.00  0.00    +0.003 A 
ATOM     31  C   UNL     1      24.703   1.907 -21.142  0.00  0.00    +0.023 A 
ATOM     32  C   UNL     1      27.083   2.095 -21.091  0.00  0.00    +0.023 A 
ATOM     33  C   UNL     1      25.913   1.991 -21.851  0.00  0.00    +0.030 A 
BRANCH  33  34
ATOM     34  N   UNL     1      25.885   2.047 -23.236  0.00  0.00    -0.333 N 
ATOM     35  C   UNL     1      25.037   1.136 -24.017  0.00  0.00    +0.086 C 
ATOM     36  C   UNL     1      26.065   3.356 -23.889  0.00  0.00    +0.086 C 
ATOM     37  C   UNL     1      25.669   0.944 -25.419  0.00  0.00    -0.060 C 
ATOM     38  C   UNL     1      26.671   3.145 -25.299  0.00  0.00    -0.060 C 
ATOM     39  N   UNL     1      25.875   2.221 -26.144  0.00  0.00    +0.380 N 
ATOM     40  C   UNL     1      26.556   1.980 -27.414  0.00  0.00    -0.096 C 
ATOM     41  H   UNL     1      24.968   2.645 -26.342  0.00  0.00    -0.082 HD
ENDBRANCH  33  34
ENDBRANCH  27  28
ENDBRANCH  24  27
ENDBRANCH  23  24
ENDBRANCH  10  23
TORSDOF 6
ENDMDL
MODEL 4
REMARK VINA RESULT:   -11.066      5.058      6.742
REMARK INTER + INTRA:         -15.896
REMARK INTER:                 -14.932
REMARK INTRA:                  -0.963
REMARK UNBOUND:                -0.948
REMARK  Name = CTX-1020902
REMARK  8 active torsions:
REMARK  status: ('A' for Active; 'I' for Inactive)
REMARK    1  A    between atoms: C_2  and  C_4
REMARK    2  A    between atoms: C_8  and  C_13
REMARK    3  A    between atoms: C_18  and  C_23
REMARK    4  A    between atoms: C_23  and  N_24
REMARK    5  A    between atoms: N_24  and  C_25
REMARK    6  A    between atoms: C_25  and  C_26
REMARK    7  A    between atoms: C_31  and  N_32
REMARK    8  A    between atoms: N_37  and  C_38
REMARK                            x       y       z     vdW  Elec       q    Type
REMARK                         _______ _______ _______ _____ _____    ______ ____
ROOT
ATOM      1  O   UNL     1      17.682  -2.039 -19.242  0.00  0.00    -0.267 OA
ATOM      2  C   UNL     1      18.711  -1.472 -18.881  0.00  0.00    +0.283 C 
ATOM      3  N   UNL     1      19.930  -2.134 -19.058  0.00  0.00    -0.289 N 
ATOM      4  C   UNL     1      21.204  -1.753 -18.474  0.00  0.00    +0.163 C 
ATOM      5  C   UNL     1      20.029  -3.171 -20.077  0.00  0.00    +0.113 C 
ATOM      6  C   UNL     1      22.231  -1.413 -19.534  0.00  0.00    +0.062 A 
ATOM      7  C   UNL     1      20.823  -2.624 -21.270  0.00  0.00    +0.056 C 
ATOM      8  N   UNL     1      23.299  -0.669 -19.142  0.00  0.00    -0.257 NA
ATOM      9  C   UNL     1      22.072  -1.887 -20.843  0.00  0.00    -0.023 A 
ATOM     10  C   UNL     1      24.247  -0.367 -20.066  0.00  0.00    +0.025 A 
ATOM     11  C   UNL     1      23.059  -1.572 -21.777  0.00  0.00    +0.007 A 
ATOM     12  C   UNL     1      24.157  -0.808 -21.385  0.00  0.00    +0.021 A 
ENDROOT
BRANCH   2  13
ATOM     13  C   UNL     1      18.673  -0.089 -18.383  0.00  0.00    +0.194 A 
ATOM     14  O   UNL     1      19.308   0.812 -19.232  0.00  0.00    -0.450 OA
ATOM     15  C   UNL     1      18.875   0.421 -17.097  0.00  0.00    +0.008 A 
ATOM     16  C   UNL     1      20.301   1.385 -18.489  0.00  0.00    +0.136 A 
ATOM     17  C   UNL     1      20.195   0.969 -17.171  0.00  0.00    +0.024 A 
ATOM     18  C   UNL     1      17.886   0.919 -16.105  0.00  0.00    +0.048 C 
ATOM     19  C   UNL     1      21.278   2.246 -18.961  0.00  0.00    +0.047 A 
ATOM     20  C   UNL     1      21.182   1.367 -16.252  0.00  0.00    +0.012 A 
ATOM     21  C   UNL     1      22.256   2.623 -18.039  0.00  0.00    +0.004 A 
ATOM     22  C   UNL     1      22.236   2.159 -16.719  0.00  0.00    +0.001 A 
ENDBRANCH   2  13
BRANCH  10  23
ATOM     23  C   UNL     1      25.359   0.596 -19.670  0.00  0.00    -0.026 C 
BRANCH  23  24
ATOM     24  N   UNL     1      26.544   0.559 -20.538  0.00  0.00    +0.385 N 
ATOM     25  H   UNL     1      26.337   0.001 -21.367  0.00  0.00    -0.085 HD
ATOM     26  H   UNL     1      27.320   0.145 -20.023  0.00  0.00    -0.085 HD
BRANCH  24  27
ATOM     27  C   UNL     1      26.913   1.915 -20.948  0.00  0.00    -0.046 C 
BRANCH  27  28
ATOM     28  C   UNL     1      26.745   2.134 -22.434  0.00  0.00    -0.064 A 
ATOM     29  C   UNL     1      26.289   1.105 -23.259  0.00  0.00    +0.003 A 
ATOM     30  C   UNL     1      26.987   3.387 -23.011  0.00  0.00    +0.003 A 
ATOM     31  C   UNL     1      26.079   1.329 -24.626  0.00  0.00    +0.023 A 
ATOM     32  C   UNL     1      26.760   3.604 -24.377  0.00  0.00    +0.023 A 
ATOM     33  C   UNL     1      26.300   2.584 -25.216  0.00  0.00    +0.030 A 
BRANCH  33  34
ATOM     34  N   UNL     1      25.982   2.769 -26.553  0.00  0.00    -0.333 N 
ATOM     35  C   UNL     1      26.093   1.669 -27.521  0.00  0.00    +0.086 C 
ATOM     36  C   UNL     1      24.910   3.721 -26.894  0.00  0.00    +0.086 C 
ATOM     37  C   UNL     1      26.343   2.266 -28.929  0.00  0.00    -0.060 C 
ATOM     38  C   UNL     1      25.160   4.287 -28.314  0.00  0.00    -0.060 C 
ATOM     39  N   UNL     1      25.297   3.231 -29.347  0.00  0.00    +0.380 N 
ATOM     40  C   UNL     1      25.640   3.824 -30.638  0.00  0.00    -0.096 C 
ATOM     41  H   UNL     1      24.408   2.740 -29.446  0.00  0.00    -0.082 HD
ENDBRANCH  33  34
ENDBRANCH  27  28
ENDBRANCH  24  27
ENDBRANCH  23  24
ENDBRANCH  10  23
TORSDOF 6
ENDMDL
MODEL 5
REMARK VINA RESULT:   -11.032      2.203      3.178
REMARK INTER + INTRA:         -15.850
REMARK INTER:                 -15.563
REMARK INTRA:                  -0.287
REMARK UNBOUND:                -0.948
REMARK  Name = CTX-1020902
REMARK  8 active torsions:
REMARK  status: ('A' for Active; 'I' for Inactive)
REMARK    1  A    between atoms: C_2  and  C_4
REMARK    2  A    between atoms: C_8  and  C_13
REMARK    3  A    between atoms: C_18  and  C_23
REMARK    4  A    between atoms: C_23  and  N_24
REMARK    5  A    between atoms: N_24  and  C_25
REMARK    6  A    between atoms: C_25  and  C_26
REMARK    7  A    between atoms: C_31  and  N_32
REMARK    8  A    between atoms: N_37  and  C_38
REMARK                            x       y       z     vdW  Elec       q    Type
REMARK                         _______ _______ _______ _____ _____    ______ ____
ROOT
ATOM      1  O   UNL     1      19.176   0.049 -19.031  0.00  0.00    -0.267 OA
ATOM      2  C   UNL     1      20.397   0.091 -18.907  0.00  0.00    +0.283 C 
ATOM      3  N   UNL     1      21.007   1.341 -18.765  0.00  0.00    -0.289 N 
ATOM      4  C   UNL     1      22.430   1.617 -18.864  0.00  0.00    +0.163 C 
ATOM      5  C   UNL     1      20.217   2.458 -18.261  0.00  0.00    +0.113 C 
ATOM      6  C   UNL     1      22.988   2.168 -17.569  0.00  0.00    +0.062 A 
ATOM      7  C   UNL     1      20.630   2.747 -16.812  0.00  0.00    +0.056 C 
ATOM      8  N   UNL     1      24.332   2.085 -17.391  0.00  0.00    -0.257 NA
ATOM      9  C   UNL     1      22.131   2.761 -16.631  0.00  0.00    -0.023 A 
ATOM     10  C   UNL     1      24.864   2.592 -16.249  0.00  0.00    +0.025 A 
ATOM     11  C   UNL     1      22.696   3.281 -15.467  0.00  0.00    +0.007 A 
ATOM     12  C   UNL     1      24.074   3.199 -15.274  0.00  0.00    +0.021 A 
ENDROOT
BRANCH   2  13
ATOM     13  C   UNL     1      21.185  -1.145 -18.794  0.00  0.00    +0.194 A 
ATOM     14  O   UNL     1      22.413  -1.069 -19.444  0.00  0.00    -0.450 OA
ATOM     15  C   UNL     1      20.798  -2.484 -18.908  0.00  0.00    +0.008 A 
ATOM     16  C   UNL     1      22.403  -2.069 -20.374  0.00  0.00    +0.136 A 
ATOM     17  C   UNL     1      21.267  -2.846 -20.210  0.00  0.00    +0.024 A 
ATOM     18  C   UNL     1      20.589  -3.508 -17.849  0.00  0.00    +0.048 C 
ATOM     19  C   UNL     1      23.366  -2.287 -21.345  0.00  0.00    +0.047 A 
ATOM     20  C   UNL     1      21.012  -3.877 -21.131  0.00  0.00    +0.012 A 
ATOM     21  C   UNL     1      23.092  -3.307 -22.258  0.00  0.00    +0.004 A 
ATOM     22  C   UNL     1      21.916  -4.062 -22.182  0.00  0.00    +0.001 A 
ENDBRANCH   2  13
BRANCH  10  23
ATOM     23  C   UNL     1      26.345   2.357 -15.977  0.00  0.00    -0.026 C 
BRANCH  23  24
ATOM     24  N   UNL     1      27.254   2.923 -16.983  0.00  0.00    +0.385 N 
ATOM     25  H   UNL     1      26.706   3.398 -17.701  0.00  0.00    -0.085 HD
ATOM     26  H   UNL     1      27.798   2.169 -17.400  0.00  0.00    -0.085 HD
BRANCH  24  27
ATOM     27  C   UNL     1      28.166   3.882 -16.358  0.00  0.00    -0.046 C 
BRANCH  27  28
ATOM     28  C   UNL     1      29.053   4.575 -17.366  0.00  0.00    -0.064 A 
ATOM     29  C   UNL     1      29.460   3.918 -18.528  0.00  0.00    +0.003 A 
ATOM     30  C   UNL     1      29.441   5.909 -17.190  0.00  0.00    +0.003 A 
ATOM     31  C   UNL     1      30.234   4.583 -19.488  0.00  0.00    +0.023 A 
ATOM     32  C   UNL     1      30.204   6.570 -18.163  0.00  0.00    +0.023 A 
ATOM     33  C   UNL     1      30.617   5.926 -19.334  0.00  0.00    +0.030 A 
BRANCH  33  34
ATOM     34  N   UNL     1      31.300   6.558 -20.362  0.00  0.00    -0.333 N 
ATOM     35  C   UNL     1      32.755   6.419 -20.507  0.00  0.00    +0.086 C 
ATOM     36  C   UNL     1      30.614   6.736 -21.655  0.00  0.00    +0.086 C 
ATOM     37  C   UNL     1      33.307   7.674 -21.229  0.00  0.00    -0.060 C 
ATOM     38  C   UNL     1      31.197   7.976 -22.376  0.00  0.00    -0.060 C 
ATOM     39  N   UNL     1      32.670   7.915 -22.546  0.00  0.00    +0.380 N 
ATOM     40  C   UNL     1      33.166   9.159 -23.131  0.00  0.00    -0.096 C 
ATOM     41  H   UNL     1      32.903   7.148 -23.178  0.00  0.00    -0.082 HD
ENDBRANCH  33  34
ENDBRANCH  27  28
ENDBRANCH  24  27
ENDBRANCH  23  24
ENDBRANCH  10  23
TORSDOF 6
ENDMDL
