REMARK  Name = CTX-1020747
REMARK  7 active torsions:
REMARK  status: ('A' for Active; 'I' for Inactive)
REMARK    1  A    between atoms: C_2  and  C_4
REMARK    2  A    between atoms: N_9  and  C_12
REMARK    3  A    between atoms: C_12  and  C_14
REMARK    4  A    between atoms: C_15  and  C_19
REMARK    5  A    between atoms: C_23  and  C_27
REMARK    6  A    between atoms: C_24  and  N_28
REMARK    7  A    between atoms: N_38  and  C_39
REMARK                            x       y       z     vdW  Elec       q    Type
REMARK                         _______ _______ _______ _____ _____    ______ ____
ROOT
ATOM      1  S   UNL     1       1.794  -0.692  -0.033  0.00  0.00    -0.088 S 
ATOM      2  C   UNL     1       2.109   0.992   0.053  0.00  0.00    +0.074 A 
ATOM      3  C   UNL     1       0.110  -0.444  -0.029  0.00  0.00    -0.003 A 
ATOM      4  C   UNL     1       0.927   1.710   0.091  0.00  0.00    +0.026 A 
ATOM      5  C   UNL     1      -0.248   0.889   0.049  0.00  0.00    -0.019 A 
ATOM      6  C   UNL     1      -0.867  -1.571  -0.151  0.00  0.00    +0.062 C 
ATOM      7  C   UNL     1      -1.690   1.354   0.075  0.00  0.00    +0.144 C 
ATOM      8  C   UNL     1      -2.281  -1.078   0.197  0.00  0.00    +0.113 C 
ATOM      9  N   UNL     1      -2.569   0.257  -0.343  0.00  0.00    -0.290 N 
ATOM     10  C   UNL     1      -3.748   0.547  -1.037  0.00  0.00    +0.283 C 
ATOM     11  O   UNL     1      -4.299   1.643  -0.928  0.00  0.00    -0.267 OA
ENDROOT
BRANCH  10  12
ATOM     12  C   UNL     1      -4.104  -0.405  -2.106  0.00  0.00    +0.194 A 
ATOM     13  O   UNL     1      -3.031  -1.125  -2.599  0.00  0.00    -0.447 OA
ATOM     14  C   UNL     1      -4.967  -0.209  -3.190  0.00  0.00    +0.008 A 
ATOM     15  C   UNL     1      -2.857  -0.600  -3.840  0.00  0.00    +0.171 A 
ATOM     16  C   UNL     1      -4.028   0.022  -4.247  0.00  0.00    +0.027 A 
ATOM     17  C   UNL     1      -6.422   0.075  -3.215  0.00  0.00    +0.048 C 
ATOM     18  C   UNL     1      -1.664  -0.569  -4.546  0.00  0.00    +0.166 A 
ATOM     19  C   UNL     1      -4.016   0.745  -5.452  0.00  0.00    +0.012 A 
ATOM     20  F   UNL     1      -0.557  -1.167  -4.086  0.00  0.00    -0.202 F 
ATOM     21  C   UNL     1      -1.631   0.240  -5.672  0.00  0.00    +0.042 A 
ATOM     22  C   UNL     1      -2.786   0.895  -6.115  0.00  0.00    +0.004 A 
ENDBRANCH  10  12
BRANCH   2  23
ATOM     23  C   UNL     1       3.464   1.551   0.074  0.00  0.00    +0.251 C 
ATOM     24  O   UNL     1       3.670   2.761   0.116  0.00  0.00    -0.270 OA
ATOM     25  N   UNL     1       4.521   0.649   0.034  0.00  0.00    -0.307 N 
ATOM     26  H   UNL     1       4.317  -0.312  -0.019  0.00  0.00    +0.149 HD
BRANCH  25  27
ATOM     27  C   UNL     1       5.911   1.063   0.068  0.00  0.00    +0.139 C 
BRANCH  27  28
ATOM     28  C   UNL     1       6.662   0.613  -1.161  0.00  0.00    -0.030 A 
ATOM     29  C   UNL     1       6.247   1.036  -2.424  0.00  0.00    +0.007 A 
ATOM     30  C   UNL     1       7.813  -0.184  -1.074  0.00  0.00    +0.007 A 
ATOM     31  C   UNL     1       6.947   0.643  -3.567  0.00  0.00    +0.023 A 
ATOM     32  C   UNL     1       8.518  -0.567  -2.229  0.00  0.00    +0.023 A 
ATOM     33  C   UNL     1       8.086  -0.178  -3.502  0.00  0.00    +0.030 A 
BRANCH  33  34
ATOM     34  N   UNL     1       8.725  -0.524  -4.685  0.00  0.00    -0.333 N 
ATOM     35  C   UNL     1      10.141  -0.925  -4.714  0.00  0.00    +0.086 C 
ATOM     36  C   UNL     1       7.908  -1.306  -5.638  0.00  0.00    +0.086 C 
ATOM     37  C   UNL     1      10.683  -0.759  -6.162  0.00  0.00    -0.060 C 
ATOM     38  C   UNL     1       8.467  -1.115  -7.064  0.00  0.00    -0.060 C 
ATOM     39  N   UNL     1       9.892  -1.508  -7.171  0.00  0.00    +0.380 N 
ATOM     40  C   UNL     1      10.386  -1.242  -8.521  0.00  0.00    -0.096 C 
ATOM     41  H   UNL     1       9.987  -2.507  -6.991  0.00  0.00    -0.082 HD
ENDBRANCH  33  34
ENDBRANCH  27  28
ENDBRANCH  25  27
ENDBRANCH   2  23
TORSDOF 5
