MODEL 1
REMARK VINA RESULT:   -11.368      0.000      0.000
REMARK INTER + INTRA:         -16.086
REMARK INTER:                 -14.691
REMARK INTRA:                  -1.394
REMARK UNBOUND:                -1.394
REMARK  Name = CTX-1020748
REMARK  7 active torsions:
REMARK  status: ('A' for Active; 'I' for Inactive)
REMARK    1  A    between atoms: C_3  and  C_6
REMARK    2  A    between atoms: N_5  and  C_9
REMARK    3  A    between atoms: C_22  and  C_23
REMARK    4  A    between atoms: N_25  and  C_26
REMARK    5  A    between atoms: C_26  and  C_27
REMARK    6  A    between atoms: C_32  and  N_33
REMARK    7  A    between atoms: N_38  and  C_39
REMARK                            x       y       z     vdW  Elec       q    Type
REMARK                         _______ _______ _______ _____ _____    ______ ____
ROOT
ATOM      1  C   UNL     1      26.349   1.770 -24.440  0.00  0.00    +0.265 C 
ATOM      2  O   UNL     1      26.830   2.628 -23.706  0.00  0.00    -0.268 OA
ATOM      3  N   UNL     1      25.657   0.610 -23.823  0.00  0.00    -0.292 N 
ATOM      4  C   UNL     1      25.906  -0.195 -22.364  0.00  0.00    +0.144 C 
ATOM      5  C   UNL     1      24.297   0.933 -24.055  0.00  0.00    +0.113 C 
ATOM      6  C   UNL     1      24.524  -0.830 -21.680  0.00  0.00    -0.019 A 
ATOM      7  C   UNL     1      23.324  -0.169 -23.780  0.00  0.00    +0.062 C 
ATOM      8  C   UNL     1      23.466  -0.977 -22.526  0.00  0.00    -0.003 A 
ATOM      9  C   UNL     1      23.939  -1.225 -20.337  0.00  0.00    +0.026 A 
ATOM     10  S   UNL     1      22.086  -1.783 -21.959  0.00  0.00    -0.088 S 
ATOM     11  C   UNL     1      22.508  -1.235 -20.392  0.00  0.00    +0.074 A 
ENDROOT
BRANCH   1  14
ATOM     12 CL   UNL     1      27.269  -0.294 -27.090  0.00  0.00    -0.081 Cl
ATOM     13  C   UNL     1      26.550   1.264 -27.118  0.00  0.00    +0.079 A 
ATOM     14  C   UNL     1      26.186   2.038 -25.995  0.00  0.00    +0.124 A 
ATOM     15  C   UNL     1      26.245   1.939 -28.362  0.00  0.00    +0.019 A 
ATOM     16  N   UNL     1      25.605   3.180 -26.616  0.00  0.00    -0.338 N 
ATOM     17  C   UNL     1      25.646   3.145 -28.023  0.00  0.00    +0.051 A 
ATOM     18  C   UNL     1      26.403   1.668 -29.762  0.00  0.00    +0.011 A 
ATOM     19  C   UNL     1      24.940   4.315 -25.999  0.00  0.00    +0.149 C 
ATOM     20  C   UNL     1      25.197   4.077 -29.006  0.00  0.00    +0.026 A 
ATOM     21  C   UNL     1      25.975   2.604 -30.746  0.00  0.00    +0.001 A 
ATOM     22  C   UNL     1      25.374   3.777 -30.356  0.00  0.00    +0.002 A 
ENDBRANCH   1  14
BRANCH  11  23
ATOM     23  C   UNL     1      21.370  -0.895 -19.533  0.00  0.00    +0.251 C 
ATOM     24  O   UNL     1      20.575  -1.676 -19.108  0.00  0.00    -0.270 OA
ATOM     25  N   UNL     1      21.159   0.500 -19.319  0.00  0.00    -0.307 N 
ATOM     26  H   UNL     1      20.364   0.757 -18.800  0.00  0.00    +0.149 HD
BRANCH  25  27
ATOM     27  C   UNL     1      22.010   1.568 -19.795  0.00  0.00    +0.139 C 
BRANCH  27  28
ATOM     28  C   UNL     1      23.181   1.872 -18.902  0.00  0.00    -0.030 A 
ATOM     29  C   UNL     1      24.475   2.003 -19.449  0.00  0.00    +0.007 A 
ATOM     30  C   UNL     1      23.032   2.083 -17.533  0.00  0.00    +0.007 A 
ATOM     31  C   UNL     1      25.562   2.294 -18.644  0.00  0.00    +0.023 A 
ATOM     32  C   UNL     1      24.147   2.378 -16.735  0.00  0.00    +0.023 A 
ATOM     33  C   UNL     1      25.439   2.448 -17.273  0.00  0.00    +0.030 A 
BRANCH  33  34
ATOM     34  N   UNL     1      26.561   2.613 -16.463  0.00  0.00    -0.333 N 
ATOM     35  C   UNL     1      27.252   3.899 -16.348  0.00  0.00    +0.086 C 
ATOM     36  C   UNL     1      27.038   1.537 -15.605  0.00  0.00    +0.086 C 
ATOM     37  C   UNL     1      28.778   3.692 -16.453  0.00  0.00    -0.060 C 
ATOM     38  C   UNL     1      28.577   1.419 -15.687  0.00  0.00    -0.060 C 
ATOM     39  N   UNL     1      29.254   2.716 -15.452  0.00  0.00    +0.380 N 
ATOM     40  C   UNL     1      30.704   2.570 -15.513  0.00  0.00    -0.096 C 
ATOM     41  H   UNL     1      29.026   3.052 -14.516  0.00  0.00    -0.082 HD
ENDBRANCH  33  34
ENDBRANCH  27  28
ENDBRANCH  25  27
ENDBRANCH  11  23
TORSDOF 5
ENDMDL
MODEL 2
REMARK VINA RESULT:   -10.724      2.628      4.334
REMARK INTER + INTRA:         -15.252
REMARK INTER:                 -13.793
REMARK INTRA:                  -1.459
REMARK UNBOUND:                -1.394
REMARK  Name = CTX-1020748
REMARK  7 active torsions:
REMARK  status: ('A' for Active; 'I' for Inactive)
REMARK    1  A    between atoms: C_3  and  C_6
REMARK    2  A    between atoms: N_5  and  C_9
REMARK    3  A    between atoms: C_22  and  C_23
REMARK    4  A    between atoms: N_25  and  C_26
REMARK    5  A    between atoms: C_26  and  C_27
REMARK    6  A    between atoms: C_32  and  N_33
REMARK    7  A    between atoms: N_38  and  C_39
REMARK                            x       y       z     vdW  Elec       q    Type
REMARK                         _______ _______ _______ _____ _____    ______ ____
ROOT
ATOM      1  C   UNL     1      23.997  -0.085 -20.890  0.00  0.00    +0.265 C 
ATOM      2  O   UNL     1      24.799  -0.611 -20.125  0.00  0.00    -0.268 OA
ATOM      3  N   UNL     1      22.588   0.074 -20.448  0.00  0.00    -0.292 N 
ATOM      4  C   UNL     1      21.625  -0.855 -19.425  0.00  0.00    +0.144 C 
ATOM      5  C   UNL     1      22.536   1.460 -20.154  0.00  0.00    +0.113 C 
ATOM      6  C   UNL     1      20.492   0.013 -18.564  0.00  0.00    -0.019 A 
ATOM      7  C   UNL     1      21.165   2.011 -19.922  0.00  0.00    +0.062 C 
ATOM      8  C   UNL     1      20.207   1.253 -19.053  0.00  0.00    -0.003 A 
ATOM      9  C   UNL     1      19.690  -0.032 -17.276  0.00  0.00    +0.026 A 
ATOM     10  S   UNL     1      18.938   2.127 -18.347  0.00  0.00    -0.088 S 
ATOM     11  C   UNL     1      19.271   1.282 -16.894  0.00  0.00    +0.074 A 
ENDROOT
BRANCH   1  14
ATOM     12 CL   UNL     1      23.102  -0.619 -24.213  0.00  0.00    -0.081 Cl
ATOM     13  C   UNL     1      24.201   0.518 -23.548  0.00  0.00    +0.079 A 
ATOM     14  C   UNL     1      24.502   0.691 -22.179  0.00  0.00    +0.124 A 
ATOM     15  C   UNL     1      24.943   1.439 -24.384  0.00  0.00    +0.019 A 
ATOM     16  N   UNL     1      25.413   1.784 -22.226  0.00  0.00    -0.338 N 
ATOM     17  C   UNL     1      25.698   2.231 -23.530  0.00  0.00    +0.051 A 
ATOM     18  C   UNL     1      25.065   1.706 -25.789  0.00  0.00    +0.011 A 
ATOM     19  C   UNL     1      26.019   2.513 -21.125  0.00  0.00    +0.149 C 
ATOM     20  C   UNL     1      26.555   3.268 -24.008  0.00  0.00    +0.026 A 
ATOM     21  C   UNL     1      25.933   2.726 -26.271  0.00  0.00    +0.001 A 
ATOM     22  C   UNL     1      26.648   3.492 -25.380  0.00  0.00    +0.002 A 
ENDBRANCH   1  14
BRANCH  11  23
ATOM     23  C   UNL     1      19.089   2.069 -15.671  0.00  0.00    +0.251 C 
ATOM     24  O   UNL     1      18.241   2.892 -15.506  0.00  0.00    -0.270 OA
ATOM     25  N   UNL     1      20.098   1.900 -14.677  0.00  0.00    -0.307 N 
ATOM     26  H   UNL     1      20.035   2.466 -13.874  0.00  0.00    +0.149 HD
BRANCH  25  27
ATOM     27  C   UNL     1      21.205   0.972 -14.744  0.00  0.00    +0.139 C 
BRANCH  27  28
ATOM     28  C   UNL     1      22.497   1.582 -15.213  0.00  0.00    -0.030 A 
ATOM     29  C   UNL     1      22.747   1.738 -16.593  0.00  0.00    +0.007 A 
ATOM     30  C   UNL     1      23.458   2.056 -14.323  0.00  0.00    +0.007 A 
ATOM     31  C   UNL     1      23.925   2.308 -17.043  0.00  0.00    +0.023 A 
ATOM     32  C   UNL     1      24.645   2.631 -14.801  0.00  0.00    +0.023 A 
ATOM     33  C   UNL     1      24.916   2.730 -16.172  0.00  0.00    +0.030 A 
BRANCH  33  34
ATOM     34  N   UNL     1      26.146   3.182 -16.644  0.00  0.00    -0.333 N 
ATOM     35  C   UNL     1      26.965   2.387 -17.562  0.00  0.00    +0.086 C 
ATOM     36  C   UNL     1      26.630   4.520 -16.330  0.00  0.00    +0.086 C 
ATOM     37  C   UNL     1      28.436   2.389 -17.097  0.00  0.00    -0.060 C 
ATOM     38  C   UNL     1      28.126   4.479 -15.945  0.00  0.00    -0.060 C 
ATOM     39  N   UNL     1      28.948   3.767 -16.951  0.00  0.00    +0.380 N 
ATOM     40  C   UNL     1      30.357   3.764 -16.572  0.00  0.00    -0.096 C 
ATOM     41  H   UNL     1      28.880   4.250 -17.846  0.00  0.00    -0.082 HD
ENDBRANCH  33  34
ENDBRANCH  27  28
ENDBRANCH  25  27
ENDBRANCH  11  23
TORSDOF 5
ENDMDL
MODEL 3
REMARK VINA RESULT:   -10.341      5.533      9.901
REMARK INTER + INTRA:         -14.758
REMARK INTER:                 -14.557
REMARK INTRA:                  -0.200
REMARK UNBOUND:                -1.394
REMARK  Name = CTX-1020748
REMARK  7 active torsions:
REMARK  status: ('A' for Active; 'I' for Inactive)
REMARK    1  A    between atoms: C_3  and  C_6
REMARK    2  A    between atoms: N_5  and  C_9
REMARK    3  A    between atoms: C_22  and  C_23
REMARK    4  A    between atoms: N_25  and  C_26
REMARK    5  A    between atoms: C_26  and  C_27
REMARK    6  A    between atoms: C_32  and  N_33
REMARK    7  A    between atoms: N_38  and  C_39
REMARK                            x       y       z     vdW  Elec       q    Type
REMARK                         _______ _______ _______ _____ _____    ______ ____
ROOT
ATOM      1  C   UNL     1      23.482   0.632 -19.995  0.00  0.00    +0.265 C 
ATOM      2  O   UNL     1      23.749   0.883 -21.166  0.00  0.00    -0.268 OA
ATOM      3  N   UNL     1      24.503   0.911 -18.954  0.00  0.00    -0.292 N 
ATOM      4  C   UNL     1      26.187   0.882 -19.003  0.00  0.00    +0.144 C 
ATOM      5  C   UNL     1      23.985   2.085 -18.353  0.00  0.00    +0.113 C 
ATOM      6  C   UNL     1      26.928   1.983 -17.993  0.00  0.00    -0.019 A 
ATOM      7  C   UNL     1      24.650   2.496 -17.078  0.00  0.00    +0.062 C 
ATOM      8  C   UNL     1      26.147   2.479 -16.993  0.00  0.00    -0.003 A 
ATOM      9  C   UNL     1      28.212   2.777 -17.842  0.00  0.00    +0.026 A 
ATOM     10  S   UNL     1      26.870   3.460 -15.815  0.00  0.00    -0.088 S 
ATOM     11  C   UNL     1      28.002   3.926 -17.014  0.00  0.00    +0.074 A 
ENDROOT
BRANCH   1  14
ATOM     12 CL   UNL     1      20.841   2.866 -19.595  0.00  0.00    -0.081 Cl
ATOM     13  C   UNL     1      20.879   1.168 -19.357  0.00  0.00    +0.079 A 
ATOM     14  C   UNL     1      21.989   0.319 -19.558  0.00  0.00    +0.124 A 
ATOM     15  C   UNL     1      19.713   0.435 -18.909  0.00  0.00    +0.019 A 
ATOM     16  N   UNL     1      21.427  -0.955 -19.262  0.00  0.00    -0.338 N 
ATOM     17  C   UNL     1      20.079  -0.903 -18.859  0.00  0.00    +0.051 A 
ATOM     18  C   UNL     1      18.363   0.749 -18.537  0.00  0.00    +0.011 A 
ATOM     19  C   UNL     1      22.035  -2.270 -19.379  0.00  0.00    +0.149 C 
ATOM     20  C   UNL     1      19.168  -1.929 -18.465  0.00  0.00    +0.026 A 
ATOM     21  C   UNL     1      17.457  -0.269 -18.124  0.00  0.00    +0.001 A 
ATOM     22  C   UNL     1      17.868  -1.581 -18.106  0.00  0.00    +0.002 A 
ENDBRANCH   1  14
BRANCH  11  23
ATOM     23  C   UNL     1      28.442   5.322 -16.935  0.00  0.00    +0.251 C 
ATOM     24  O   UNL     1      27.932   6.163 -16.260  0.00  0.00    -0.270 OA
ATOM     25  N   UNL     1      29.479   5.691 -17.843  0.00  0.00    -0.307 N 
ATOM     26  H   UNL     1      29.746   6.638 -17.855  0.00  0.00    +0.149 HD
BRANCH  25  27
ATOM     27  C   UNL     1      30.171   4.798 -18.746  0.00  0.00    +0.139 C 
BRANCH  27  28
ATOM     28  C   UNL     1      30.733   5.468 -19.969  0.00  0.00    -0.030 A 
ATOM     29  C   UNL     1      31.840   6.336 -19.856  0.00  0.00    +0.007 A 
ATOM     30  C   UNL     1      30.228   5.224 -21.244  0.00  0.00    +0.007 A 
ATOM     31  C   UNL     1      32.377   6.952 -20.972  0.00  0.00    +0.023 A 
ATOM     32  C   UNL     1      30.789   5.859 -22.362  0.00  0.00    +0.023 A 
ATOM     33  C   UNL     1      31.849   6.767 -22.239  0.00  0.00    +0.030 A 
BRANCH  33  34
ATOM     34  N   UNL     1      32.321   7.493 -23.330  0.00  0.00    -0.333 N 
ATOM     35  C   UNL     1      31.510   7.705 -24.530  0.00  0.00    +0.086 C 
ATOM     36  C   UNL     1      33.611   8.171 -23.285  0.00  0.00    +0.086 C 
ATOM     37  C   UNL     1      32.356   7.447 -25.795  0.00  0.00    -0.060 C 
ATOM     38  C   UNL     1      34.387   7.946 -24.603  0.00  0.00    -0.060 C 
ATOM     39  N   UNL     1      33.577   8.278 -25.799  0.00  0.00    +0.380 N 
ATOM     40  C   UNL     1      34.343   8.077 -27.024  0.00  0.00    -0.096 C 
ATOM     41  H   UNL     1      33.317   9.263 -25.766  0.00  0.00    -0.082 HD
ENDBRANCH  33  34
ENDBRANCH  27  28
ENDBRANCH  25  27
ENDBRANCH  11  23
TORSDOF 5
ENDMDL
MODEL 4
REMARK VINA RESULT:    -9.936      6.031     10.959
REMARK INTER + INTRA:         -14.235
REMARK INTER:                 -14.116
REMARK INTRA:                  -0.119
REMARK UNBOUND:                -1.394
REMARK  Name = CTX-1020748
REMARK  7 active torsions:
REMARK  status: ('A' for Active; 'I' for Inactive)
REMARK    1  A    between atoms: C_3  and  C_6
REMARK    2  A    between atoms: N_5  and  C_9
REMARK    3  A    between atoms: C_22  and  C_23
REMARK    4  A    between atoms: N_25  and  C_26
REMARK    5  A    between atoms: C_26  and  C_27
REMARK    6  A    between atoms: C_32  and  N_33
REMARK    7  A    between atoms: N_38  and  C_39
REMARK                            x       y       z     vdW  Elec       q    Type
REMARK                         _______ _______ _______ _____ _____    ______ ____
ROOT
ATOM      1  C   UNL     1      22.245   1.790 -18.482  0.00  0.00    +0.265 C 
ATOM      2  O   UNL     1      21.958   2.458 -19.471  0.00  0.00    -0.268 OA
ATOM      3  N   UNL     1      23.676   1.633 -18.120  0.00  0.00    -0.292 N 
ATOM      4  C   UNL     1      25.070   1.584 -19.064  0.00  0.00    +0.144 C 
ATOM      5  C   UNL     1      23.787   2.506 -17.010  0.00  0.00    +0.113 C 
ATOM      6  C   UNL     1      26.429   2.205 -18.324  0.00  0.00    -0.019 A 
ATOM      7  C   UNL     1      25.060   2.391 -16.232  0.00  0.00    +0.062 C 
ATOM      8  C   UNL     1      26.363   2.307 -16.967  0.00  0.00    -0.003 A 
ATOM      9  C   UNL     1      27.764   2.853 -18.645  0.00  0.00    +0.026 A 
ATOM     10  S   UNL     1      27.763   2.755 -16.122  0.00  0.00    -0.088 S 
ATOM     11  C   UNL     1      28.240   3.610 -17.528  0.00  0.00    +0.074 A 
ENDROOT
BRANCH   1  14
ATOM     12 CL   UNL     1      20.934   3.670 -15.860  0.00  0.00    -0.081 Cl
ATOM     13  C   UNL     1      20.563   2.067 -16.346  0.00  0.00    +0.079 A 
ATOM     14  C   UNL     1      21.126   1.372 -17.439  0.00  0.00    +0.124 A 
ATOM     15  C   UNL     1      19.591   1.262 -15.637  0.00  0.00    +0.019 A 
ATOM     16  N   UNL     1      20.415   0.139 -17.385  0.00  0.00    -0.338 N 
ATOM     17  C   UNL     1      19.510   0.051 -16.310  0.00  0.00    +0.051 A 
ATOM     18  C   UNL     1      18.749   1.417 -14.484  0.00  0.00    +0.011 A 
ATOM     19  C   UNL     1      20.462  -0.981 -18.309  0.00  0.00    +0.149 C 
ATOM     20  C   UNL     1      18.634  -0.997 -15.895  0.00  0.00    +0.026 A 
ATOM     21  C   UNL     1      17.889   0.367 -14.055  0.00  0.00    +0.001 A 
ATOM     22  C   UNL     1      17.837  -0.808 -14.768  0.00  0.00    +0.002 A 
ENDBRANCH   1  14
BRANCH  11  23
ATOM     23  C   UNL     1      28.958   4.862 -17.271  0.00  0.00    +0.251 C 
ATOM     24  O   UNL     1      28.776   5.576 -16.332  0.00  0.00    -0.270 OA
ATOM     25  N   UNL     1      29.838   5.289 -18.309  0.00  0.00    -0.307 N 
ATOM     26  H   UNL     1      30.282   6.159 -18.190  0.00  0.00    +0.149 HD
BRANCH  25  27
ATOM     27  C   UNL     1      30.137   4.556 -19.520  0.00  0.00    +0.139 C 
BRANCH  27  28
ATOM     28  C   UNL     1      30.710   5.398 -20.627  0.00  0.00    -0.030 A 
ATOM     29  C   UNL     1      30.161   5.330 -21.926  0.00  0.00    +0.007 A 
ATOM     30  C   UNL     1      31.750   6.297 -20.410  0.00  0.00    +0.007 A 
ATOM     31  C   UNL     1      30.668   6.105 -22.953  0.00  0.00    +0.023 A 
ATOM     32  C   UNL     1      32.248   7.074 -21.467  0.00  0.00    +0.023 A 
ATOM     33  C   UNL     1      31.740   6.960 -22.767  0.00  0.00    +0.030 A 
BRANCH  33  34
ATOM     34  N   UNL     1      32.318   7.636 -23.840  0.00  0.00    -0.333 N 
ATOM     35  C   UNL     1      31.645   7.755 -25.135  0.00  0.00    +0.086 C 
ATOM     36  C   UNL     1      33.579   8.350 -23.692  0.00  0.00    +0.086 C 
ATOM     37  C   UNL     1      32.635   7.449 -26.278  0.00  0.00    -0.060 C 
ATOM     38  C   UNL     1      34.506   8.072 -24.898  0.00  0.00    -0.060 C 
ATOM     39  N   UNL     1      33.830   8.312 -26.195  0.00  0.00    +0.380 N 
ATOM     40  C   UNL     1      34.735   8.063 -27.312  0.00  0.00    -0.096 C 
ATOM     41  H   UNL     1      33.547   9.290 -26.251  0.00  0.00    -0.082 HD
ENDBRANCH  33  34
ENDBRANCH  27  28
ENDBRANCH  25  27
ENDBRANCH  11  23
TORSDOF 5
ENDMDL
MODEL 5
REMARK VINA RESULT:    -9.936      3.110      5.584
REMARK INTER + INTRA:         -14.234
REMARK INTER:                 -12.911
REMARK INTRA:                  -1.323
REMARK UNBOUND:                -1.394
REMARK  Name = CTX-1020748
REMARK  7 active torsions:
REMARK  status: ('A' for Active; 'I' for Inactive)
REMARK    1  A    between atoms: C_3  and  C_6
REMARK    2  A    between atoms: N_5  and  C_9
REMARK    3  A    between atoms: C_22  and  C_23
REMARK    4  A    between atoms: N_25  and  C_26
REMARK    5  A    between atoms: C_26  and  C_27
REMARK    6  A    between atoms: C_32  and  N_33
REMARK    7  A    between atoms: N_38  and  C_39
REMARK                            x       y       z     vdW  Elec       q    Type
REMARK                         _______ _______ _______ _____ _____    ______ ____
ROOT
ATOM      1  C   UNL     1      23.461  -0.356 -20.092  0.00  0.00    +0.265 C 
ATOM      2  O   UNL     1      23.779  -1.436 -19.604  0.00  0.00    -0.268 OA
ATOM      3  N   UNL     1      22.630   0.573 -19.286  0.00  0.00    -0.292 N 
ATOM      4  C   UNL     1      21.451   0.291 -18.116  0.00  0.00    +0.144 C 
ATOM      5  C   UNL     1      23.586   1.540 -18.888  0.00  0.00    +0.113 C 
ATOM      6  C   UNL     1      21.362   1.456 -16.927  0.00  0.00    -0.019 A 
ATOM      7  C   UNL     1      23.021   2.777 -18.265  0.00  0.00    +0.062 C 
ATOM      8  C   UNL     1      21.941   2.651 -17.233  0.00  0.00    -0.003 A 
ATOM      9  C   UNL     1      20.942   1.647 -15.481  0.00  0.00    +0.026 A 
ATOM     10  S   UNL     1      21.738   3.945 -16.158  0.00  0.00    -0.088 S 
ATOM     11  C   UNL     1      21.601   2.781 -14.908  0.00  0.00    +0.074 A 
ENDROOT
BRANCH   1  14
ATOM     12 CL   UNL     1      26.342   1.583 -20.353  0.00  0.00    -0.081 Cl
ATOM     13  C   UNL     1      25.319   0.975 -21.590  0.00  0.00    +0.079 A 
ATOM     14  C   UNL     1      24.171   0.175 -21.408  0.00  0.00    +0.124 A 
ATOM     15  C   UNL     1      25.570   1.250 -22.989  0.00  0.00    +0.019 A 
ATOM     16  N   UNL     1      23.774  -0.060 -22.755  0.00  0.00    -0.338 N 
ATOM     17  C   UNL     1      24.586   0.585 -23.708  0.00  0.00    +0.051 A 
ATOM     18  C   UNL     1      26.534   1.994 -23.750  0.00  0.00    +0.011 A 
ATOM     19  C   UNL     1      22.706  -0.907 -23.257  0.00  0.00    +0.149 C 
ATOM     20  C   UNL     1      24.525   0.622 -25.133  0.00  0.00    +0.026 A 
ATOM     21  C   UNL     1      26.464   2.050 -25.171  0.00  0.00    +0.001 A 
ATOM     22  C   UNL     1      25.477   1.360 -25.834  0.00  0.00    +0.002 A 
ENDBRANCH   1  14
BRANCH  11  23
ATOM     23  C   UNL     1      22.186   3.184 -13.626  0.00  0.00    +0.251 C 
ATOM     24  O   UNL     1      21.665   3.908 -12.833  0.00  0.00    -0.270 OA
ATOM     25  N   UNL     1      23.531   2.763 -13.406  0.00  0.00    -0.307 N 
ATOM     26  H   UNL     1      23.968   3.077 -12.582  0.00  0.00    +0.149 HD
BRANCH  25  27
ATOM     27  C   UNL     1      24.308   1.918 -14.285  0.00  0.00    +0.139 C 
BRANCH  27  28
ATOM     28  C   UNL     1      25.431   2.625 -14.991  0.00  0.00    -0.030 A 
ATOM     29  C   UNL     1      26.615   1.929 -15.316  0.00  0.00    +0.007 A 
ATOM     30  C   UNL     1      25.332   3.956 -15.391  0.00  0.00    +0.007 A 
ATOM     31  C   UNL     1      27.654   2.562 -15.975  0.00  0.00    +0.023 A 
ATOM     32  C   UNL     1      26.397   4.577 -16.060  0.00  0.00    +0.023 A 
ATOM     33  C   UNL     1      27.594   3.899 -16.328  0.00  0.00    +0.030 A 
BRANCH  33  34
ATOM     34  N   UNL     1      28.697   4.551 -16.875  0.00  0.00    -0.333 N 
ATOM     35  C   UNL     1      28.923   5.985 -16.687  0.00  0.00    +0.086 C 
ATOM     36  C   UNL     1      29.739   3.812 -17.576  0.00  0.00    +0.086 C 
ATOM     37  C   UNL     1      29.312   6.642 -18.028  0.00  0.00    -0.060 C 
ATOM     38  C   UNL     1      30.149   4.548 -18.872  0.00  0.00    -0.060 C 
ATOM     39  N   UNL     1      30.483   5.972 -18.630  0.00  0.00    +0.380 N 
ATOM     40  C   UNL     1      30.886   6.633 -19.866  0.00  0.00    -0.096 C 
ATOM     41  H   UNL     1      31.273   6.028 -17.988  0.00  0.00    -0.082 HD
ENDBRANCH  33  34
ENDBRANCH  27  28
ENDBRANCH  25  27
ENDBRANCH  11  23
TORSDOF 5
ENDMDL
