REMARK  Name = CTX-1020902
REMARK  8 active torsions:
REMARK  status: ('A' for Active; 'I' for Inactive)
REMARK    1  A    between atoms: C_2  and  C_4
REMARK    2  A    between atoms: C_8  and  C_13
REMARK    3  A    between atoms: C_18  and  C_23
REMARK    4  A    between atoms: C_23  and  N_24
REMARK    5  A    between atoms: N_24  and  C_25
REMARK    6  A    between atoms: C_25  and  C_26
REMARK    7  A    between atoms: C_31  and  N_32
REMARK    8  A    between atoms: N_37  and  C_38
REMARK                            x       y       z     vdW  Elec       q    Type
REMARK                         _______ _______ _______ _____ _____    ______ ____
ROOT
ATOM      1  O   UNL     1       1.520   0.429  -0.606  0.00  0.00    -0.267 OA
ATOM      2  C   UNL     1       2.592  -0.123  -0.368  0.00  0.00    +0.283 C 
ATOM      3  N   UNL     1       3.013  -1.149  -1.220  0.00  0.00    -0.289 N 
ATOM      4  C   UNL     1       4.098  -2.081  -0.967  0.00  0.00    +0.163 C 
ATOM      5  C   UNL     1       2.495  -1.193  -2.582  0.00  0.00    +0.113 C 
ATOM      6  C   UNL     1       5.200  -1.956  -1.998  0.00  0.00    +0.062 A 
ATOM      7  C   UNL     1       3.595  -0.736  -3.548  0.00  0.00    +0.056 C 
ATOM      8  N   UNL     1       6.418  -2.456  -1.663  0.00  0.00    -0.257 NA
ATOM      9  C   UNL     1       4.932  -1.374  -3.245  0.00  0.00    -0.023 A 
ATOM     10  C   UNL     1       7.420  -2.378  -2.576  0.00  0.00    +0.025 A 
ATOM     11  C   UNL     1       5.972  -1.308  -4.172  0.00  0.00    +0.007 A 
ATOM     12  C   UNL     1       7.226  -1.816  -3.837  0.00  0.00    +0.021 A 
ENDROOT
BRANCH   2  13
ATOM     13  C   UNL     1       3.462   0.359   0.714  0.00  0.00    +0.194 A 
ATOM     14  O   UNL     1       2.813   1.226   1.588  0.00  0.00    -0.450 OA
ATOM     15  C   UNL     1       4.789   0.799   0.687  0.00  0.00    +0.008 A 
ATOM     16  C   UNL     1       3.516   2.396   1.540  0.00  0.00    +0.136 A 
ATOM     17  C   UNL     1       4.660   2.221   0.777  0.00  0.00    +0.024 A 
ATOM     18  C   UNL     1       6.030   0.106   1.126  0.00  0.00    +0.048 C 
ATOM     19  C   UNL     1       3.156   3.588   2.147  0.00  0.00    +0.047 A 
ATOM     20  C   UNL     1       5.480   3.333   0.518  0.00  0.00    +0.012 A 
ATOM     21  C   UNL     1       3.975   4.685   1.871  0.00  0.00    +0.004 A 
ATOM     22  C   UNL     1       5.093   4.573   1.037  0.00  0.00    +0.001 A 
ENDBRANCH   2  13
BRANCH  10  23
ATOM     23  C   UNL     1       8.822  -2.791  -2.146  0.00  0.00    -0.026 C 
BRANCH  23  24
ATOM     24  N   UNL     1       8.954  -4.198  -1.745  0.00  0.00    +0.385 N 
ATOM     25  H   UNL     1       8.715  -4.797  -2.536  0.00  0.00    -0.085 HD
ATOM     26  H   UNL     1       8.324  -4.382  -0.965  0.00  0.00    -0.085 HD
BRANCH  24  27
ATOM     27  C   UNL     1      10.328  -4.478  -1.325  0.00  0.00    -0.046 C 
BRANCH  27  28
ATOM     28  C   UNL     1      10.533  -5.927  -0.950  0.00  0.00    -0.064 A 
ATOM     29  C   UNL     1      11.468  -6.713  -1.626  0.00  0.00    +0.003 A 
ATOM     30  C   UNL     1       9.835  -6.502   0.119  0.00  0.00    +0.003 A 
ATOM     31  C   UNL     1      11.697  -8.039  -1.237  0.00  0.00    +0.023 A 
ATOM     32  C   UNL     1      10.082  -7.826   0.509  0.00  0.00    +0.023 A 
ATOM     33  C   UNL     1      11.018  -8.625  -0.156  0.00  0.00    +0.030 A 
BRANCH  33  34
ATOM     34  N   UNL     1      11.357  -9.909   0.242  0.00  0.00    -0.333 N 
ATOM     35  C   UNL     1      11.119 -10.367   1.618  0.00  0.00    +0.086 C 
ATOM     36  C   UNL     1      11.258 -10.999  -0.745  0.00  0.00    +0.086 C 
ATOM     37  C   UNL     1      12.140 -11.482   1.957  0.00  0.00    -0.060 C 
ATOM     38  C   UNL     1      12.264 -12.117  -0.376  0.00  0.00    -0.060 C 
ATOM     39  N   UNL     1      12.094 -12.621   1.009  0.00  0.00    +0.380 N 
ATOM     40  C   UNL     1      13.140 -13.591   1.329  0.00  0.00    -0.096 C 
ATOM     41  H   UNL     1      11.190 -13.088   1.088  0.00  0.00    -0.082 HD
ENDBRANCH  33  34
ENDBRANCH  27  28
ENDBRANCH  24  27
ENDBRANCH  23  24
ENDBRANCH  10  23
TORSDOF 6
