REMARK  Name = CTX-1020740
REMARK  6 active torsions:
REMARK  status: ('A' for Active; 'I' for Inactive)
REMARK    1  A    between atoms: C_2  and  C_4
REMARK    2  A    between atoms: N_9  and  C_12
REMARK    3  A    between atoms: C_12  and  C_14
REMARK    4  A    between atoms: C_15  and  C_19
REMARK    5  A    between atoms: C_23  and  C_27
REMARK    6  A    between atoms: C_24  and  C_28
REMARK                            x       y       z     vdW  Elec       q    Type
REMARK                         _______ _______ _______ _____ _____    ______ ____
ROOT
ATOM      1  S   UNL     1       1.773  -0.686   0.014  0.00  0.00    -0.088 S 
ATOM      2  C   UNL     1       2.082   0.997   0.093  0.00  0.00    +0.074 A 
ATOM      3  C   UNL     1       0.086  -0.443  -0.013  0.00  0.00    -0.003 A 
ATOM      4  C   UNL     1       0.893   1.714   0.110  0.00  0.00    +0.026 A 
ATOM      5  C   UNL     1      -0.276   0.887   0.053  0.00  0.00    -0.019 A 
ATOM      6  C   UNL     1      -0.885  -1.574  -0.143  0.00  0.00    +0.062 C 
ATOM      7  C   UNL     1      -1.716   1.350   0.055  0.00  0.00    +0.144 C 
ATOM      8  C   UNL     1      -2.303  -1.079   0.190  0.00  0.00    +0.113 C 
ATOM      9  N   UNL     1      -2.587   0.250  -0.363  0.00  0.00    -0.290 N 
ATOM     10  C   UNL     1      -3.782   0.539  -1.037  0.00  0.00    +0.283 C 
ATOM     11  O   UNL     1      -4.319   1.642  -0.933  0.00  0.00    -0.267 OA
ENDROOT
BRANCH  10  12
ATOM     12  C   UNL     1      -4.184  -0.442  -2.068  0.00  0.00    +0.194 A 
ATOM     13  O   UNL     1      -3.120  -1.174  -2.577  0.00  0.00    -0.450 OA
ATOM     14  C   UNL     1      -5.045  -0.249  -3.156  0.00  0.00    +0.008 A 
ATOM     15  C   UNL     1      -2.940  -0.625  -3.807  0.00  0.00    +0.136 A 
ATOM     16  C   UNL     1      -4.106   0.021  -4.198  0.00  0.00    +0.024 A 
ATOM     17  C   UNL     1      -6.513  -0.059  -3.198  0.00  0.00    +0.048 C 
ATOM     18  C   UNL     1      -1.745  -0.621  -4.506  0.00  0.00    +0.047 A 
ATOM     19  C   UNL     1      -4.089   0.757  -5.392  0.00  0.00    +0.012 A 
ATOM     20  C   UNL     1      -1.716   0.207  -5.626  0.00  0.00    +0.004 A 
ATOM     21  C   UNL     1      -2.861   0.890  -6.058  0.00  0.00    +0.001 A 
ENDBRANCH  10  12
BRANCH   2  22
ATOM     22  C   UNL     1       3.435   1.557   0.107  0.00  0.00    +0.251 C 
ATOM     23  O   UNL     1       3.639   2.775   0.100  0.00  0.00    -0.270 OA
ATOM     24  N   UNL     1       4.487   0.659   0.096  0.00  0.00    -0.307 N 
ATOM     25  H   UNL     1       4.293  -0.305   0.140  0.00  0.00    +0.149 HD
BRANCH  24  26
ATOM     26  C   UNL     1       5.864   1.094   0.021  0.00  0.00    +0.139 C 
BRANCH  26  27
ATOM     27  C   UNL     1       6.522   1.186   1.377  0.00  0.00    -0.030 A 
ATOM     28  C   UNL     1       7.177   0.079   1.933  0.00  0.00    +0.006 A 
ATOM     29  C   UNL     1       6.490   2.386   2.101  0.00  0.00    +0.006 A 
ATOM     30  C   UNL     1       7.805   0.177   3.178  0.00  0.00    +0.013 A 
ATOM     31  C   UNL     1       7.119   2.485   3.345  0.00  0.00    +0.013 A 
ATOM     32  C   UNL     1       7.786   1.381   3.897  0.00  0.00    +0.055 A 
BRANCH  32  33
ATOM     33  C   UNL     1       8.462   1.504   5.240  0.00  0.00    +0.417 C 
ATOM     34  F   UNL     1       9.049   0.348   5.662  0.00  0.00    -0.166 F 
ATOM     35  F   UNL     1       9.447   2.444   5.246  0.00  0.00    -0.166 F 
ATOM     36  F   UNL     1       7.597   1.863   6.229  0.00  0.00    -0.166 F 
ENDBRANCH  32  33
ENDBRANCH  26  27
ENDBRANCH  24  26
ENDBRANCH   2  22
TORSDOF 5
