REMARK  Name = CTX-1020735
REMARK  7 active torsions:
REMARK  status: ('A' for Active; 'I' for Inactive)
REMARK    1  A    between atoms: C_2  and  C_4
REMARK    2  A    between atoms: N_9  and  C_12
REMARK    3  A    between atoms: C_12  and  C_14
REMARK    4  A    between atoms: C_15  and  C_19
REMARK    5  A    between atoms: C_20  and  N_23
REMARK    6  A    between atoms: C_22  and  C_26
REMARK    7  A    between atoms: N_35  and  C_36
REMARK                            x       y       z     vdW  Elec       q    Type
REMARK                         _______ _______ _______ _____ _____    ______ ____
ROOT
ATOM      1  S   UNL     1       1.827  -0.702   0.000  0.00  0.00    -0.088 S 
ATOM      2  C   UNL     1       2.128   0.980   0.072  0.00  0.00    +0.074 A 
ATOM      3  C   UNL     1       0.144  -0.456  -0.043  0.00  0.00    -0.003 A 
ATOM      4  C   UNL     1       0.947   1.702   0.015  0.00  0.00    +0.026 A 
ATOM      5  C   UNL     1      -0.213   0.879  -0.041  0.00  0.00    -0.019 A 
ATOM      6  C   UNL     1      -0.848  -1.572  -0.082  0.00  0.00    +0.062 C 
ATOM      7  C   UNL     1      -1.642   1.357  -0.047  0.00  0.00    +0.144 C 
ATOM      8  C   UNL     1      -2.215  -1.025   0.360  0.00  0.00    +0.113 C 
ATOM      9  N   UNL     1      -2.535   0.234  -0.344  0.00  0.00    -0.290 N 
ATOM     10  C   UNL     1      -3.479   0.393  -1.365  0.00  0.00    +0.283 C 
ATOM     11  O   UNL     1      -3.517   1.426  -2.032  0.00  0.00    -0.267 OA
ENDROOT
BRANCH  10  12
ATOM     12  C   UNL     1      -4.409  -0.698  -1.627  0.00  0.00    +0.194 A 
ATOM     13  O   UNL     1      -4.875  -1.438  -0.574  0.00  0.00    -0.450 OA
ATOM     14  C   UNL     1      -5.015  -1.131  -2.802  0.00  0.00    +0.008 A 
ATOM     15  C   UNL     1      -5.699  -2.391  -1.066  0.00  0.00    +0.136 A 
ATOM     16  C   UNL     1      -5.859  -2.226  -2.432  0.00  0.00    +0.024 A 
ATOM     17  C   UNL     1      -4.823  -0.597  -4.175  0.00  0.00    +0.048 C 
ATOM     18  C   UNL     1      -6.302  -3.391  -0.310  0.00  0.00    +0.047 A 
ATOM     19  C   UNL     1      -6.736  -3.096  -3.104  0.00  0.00    +0.012 A 
ATOM     20  C   UNL     1      -7.162  -4.251  -0.998  0.00  0.00    +0.004 A 
ATOM     21  C   UNL     1      -7.386  -4.099  -2.369  0.00  0.00    +0.001 A 
ENDBRANCH  10  12
BRANCH   2  22
ATOM     22  C   UNL     1       3.457   1.563   0.208  0.00  0.00    +0.251 C 
ATOM     23  O   UNL     1       3.624   2.787   0.286  0.00  0.00    -0.270 OA
ATOM     24  N   UNL     1       4.544   0.708   0.264  0.00  0.00    -0.311 N 
ATOM     25  H   UNL     1       4.412  -0.266   0.202  0.00  0.00    +0.149 HD
BRANCH  24  26
ATOM     26  C   UNL     1       5.880   1.257   0.414  0.00  0.00    +0.108 C 
BRANCH  26  27
ATOM     27  C   UNL     1       6.898   0.128   0.414  0.00  0.00    +0.003 C 
ATOM     28  C   UNL     1       6.934  -0.920   1.560  0.00  0.00    -0.010 C 
ATOM     29  C   UNL     1       8.356   0.482   0.843  0.00  0.00    -0.010 C 
ATOM     30  C   UNL     1       8.493  -0.962   1.444  0.00  0.00    -0.068 C 
BRANCH  30  31
ATOM     31  N   UNL     1       8.963  -1.876   0.376  0.00  0.00    +0.379 N 
ATOM     32  C   UNL     1       8.705  -3.308   0.645  0.00  0.00    -0.098 C 
ATOM     33  C   UNL     1      10.425  -1.727   0.154  0.00  0.00    -0.098 C 
ATOM     34  C   UNL     1       9.606  -3.999   1.697  0.00  0.00    -0.098 C 
ATOM     35  C   UNL     1      11.366  -2.415   1.181  0.00  0.00    -0.098 C 
ATOM     36  N   UNL     1      11.046  -3.825   1.452  0.00  0.00    +0.375 N 
ATOM     37  C   UNL     1      11.820  -4.327   2.591  0.00  0.00    -0.096 C 
ATOM     38  H   UNL     1       8.426  -1.602  -0.446  0.00  0.00    -0.082 HD
ATOM     39  H   UNL     1      11.299  -4.368   0.625  0.00  0.00    -0.082 HD
ENDBRANCH  30  31
ENDBRANCH  26  27
ENDBRANCH  24  26
ENDBRANCH   2  22
TORSDOF 5
