REMARK  Name = CTX-1020697
REMARK  7 active torsions:
REMARK  status: ('A' for Active; 'I' for Inactive)
REMARK    1  A    between atoms: C_2  and  C_4
REMARK    2  A    between atoms: N_3  and  C_5
REMARK    3  A    between atoms: C_5  and  C_8
REMARK    4  A    between atoms: C_19  and  C_22
REMARK    5  A    between atoms: C_21  and  C_24
REMARK    6  A    between atoms: C_28  and  C_33
REMARK    7  A    between atoms: N_34  and  C_37
REMARK                            x       y       z     vdW  Elec       q    Type
REMARK                         _______ _______ _______ _____ _____    ______ ____
ROOT
ATOM      1  C   UNL     1       3.113  -0.271  -1.475  0.00  0.00    +0.126 A 
ATOM      2  N   UNL     1       4.104  -1.219  -1.415  0.00  0.00    -0.245 NA
ATOM      3  C   UNL     1       2.738   0.390  -2.642  0.00  0.00    +0.033 A 
ATOM      4  C   UNL     1       4.763  -1.491  -2.593  0.00  0.00    +0.063 A 
ATOM      5  C   UNL     1       3.402   0.085  -3.814  0.00  0.00    +0.008 A 
ATOM      6  C   UNL     1       4.429  -0.854  -3.804  0.00  0.00    -0.023 A 
ATOM      7  C   UNL     1       5.932  -2.483  -2.559  0.00  0.00    +0.163 C 
ATOM      8  C   UNL     1       5.092  -1.212  -5.107  0.00  0.00    +0.056 C 
ATOM      9  N   UNL     1       6.318  -2.959  -3.891  0.00  0.00    -0.289 N 
ATOM     10  C   UNL     1       6.414  -1.945  -4.926  0.00  0.00    +0.113 C 
ATOM     11  C   UNL     1       6.836  -4.244  -4.077  0.00  0.00    +0.283 C 
ATOM     12  O   UNL     1       7.431  -4.831  -3.175  0.00  0.00    -0.267 OA
ENDROOT
BRANCH  11  13
ATOM     13  C   UNL     1       6.378  -4.926  -5.292  0.00  0.00    +0.194 A 
ATOM     14  O   UNL     1       5.198  -4.450  -5.822  0.00  0.00    -0.450 OA
ATOM     15  C   UNL     1       6.538  -6.232  -5.756  0.00  0.00    +0.008 A 
ATOM     16  C   UNL     1       4.428  -5.546  -6.008  0.00  0.00    +0.136 A 
ATOM     17  C   UNL     1       5.189  -6.692  -5.841  0.00  0.00    +0.024 A 
ATOM     18  C   UNL     1       7.753  -7.048  -5.990  0.00  0.00    +0.048 C 
ATOM     19  C   UNL     1       3.062  -5.519  -6.237  0.00  0.00    +0.047 A 
ATOM     20  C   UNL     1       4.529  -7.931  -5.792  0.00  0.00    +0.012 A 
ATOM     21  C   UNL     1       2.420  -6.755  -6.153  0.00  0.00    +0.004 A 
ATOM     22  C   UNL     1       3.132  -7.935  -5.901  0.00  0.00    +0.001 A 
ENDBRANCH  11  13
BRANCH   1  24
ATOM     23  O   UNL     1       1.670   1.086  -0.173  0.00  0.00    -0.269 OA
ATOM     24  C   UNL     1       2.345   0.061  -0.229  0.00  0.00    +0.263 C 
ATOM     25  N   UNL     1       2.414  -0.857   0.795  0.00  0.00    -0.306 N 
ATOM     26  H   UNL     1       2.991  -1.648   0.692  0.00  0.00    +0.149 HD
BRANCH  25  27
ATOM     27  C   UNL     1       1.661  -0.689   2.016  0.00  0.00    +0.140 C 
BRANCH  27  28
ATOM     28  C   UNL     1       2.571  -0.655   3.209  0.00  0.00    -0.030 A 
ATOM     29  C   UNL     1       3.240   0.526   3.536  0.00  0.00    +0.005 A 
ATOM     30  C   UNL     1       2.792  -1.791   3.991  0.00  0.00    +0.005 A 
ATOM     31  C   UNL     1       4.095   0.579   4.639  0.00  0.00    +0.004 A 
ATOM     32  C   UNL     1       3.634  -1.728   5.108  0.00  0.00    +0.004 A 
ATOM     33  C   UNL     1       4.278  -0.532   5.474  0.00  0.00    -0.044 A 
BRANCH  33  34
ATOM     34  C   UNL     1       5.149  -0.502   6.732  0.00  0.00    +0.016 C 
ATOM     35  C   UNL     1       4.382  -0.928   7.997  0.00  0.00    -0.011 C 
ATOM     36  C   UNL     1       5.838   0.832   7.066  0.00  0.00    -0.011 C 
ATOM     37  C   UNL     1       3.372   0.136   8.424  0.00  0.00    -0.079 C 
ATOM     38  C   UNL     1       4.862   1.899   7.580  0.00  0.00    -0.079 C 
ATOM     39  N   UNL     1       3.990   1.447   8.671  0.00  0.00    +0.378 N 
ATOM     40  C   UNL     1       2.931   2.444   8.884  0.00  0.00    -0.096 C 
ATOM     41  H   UNL     1       4.579   1.345   9.498  0.00  0.00    -0.082 HD
ENDBRANCH  33  34
ENDBRANCH  27  28
ENDBRANCH  25  27
ENDBRANCH   1  24
TORSDOF 5
