REMARK  Name = CTX-1020726
REMARK  4 active torsions:
REMARK  status: ('A' for Active; 'I' for Inactive)
REMARK    1  A    between atoms: C_2  and  C_4
REMARK    2  A    between atoms: N_3  and  C_5
REMARK    3  A    between atoms: C_23  and  C_25
REMARK    4  A    between atoms: C_27  and  C_30
REMARK                            x       y       z     vdW  Elec       q    Type
REMARK                         _______ _______ _______ _____ _____    ______ ____
ROOT
ATOM      1  C   UNL     1       3.515   0.484   0.337  0.00  0.00    +0.126 A 
ATOM      2  N   UNL     1       4.525   0.910  -0.505  0.00  0.00    -0.245 NA
ATOM      3  C   UNL     1       2.905   1.355   1.244  0.00  0.00    +0.033 A 
ATOM      4  C   UNL     1       4.939   2.255  -0.397  0.00  0.00    +0.063 A 
ATOM      5  C   UNL     1       3.351   2.661   1.360  0.00  0.00    +0.008 A 
ATOM      6  C   UNL     1       4.402   3.126   0.568  0.00  0.00    -0.023 A 
ATOM      7  C   UNL     1       6.035   2.831  -1.346  0.00  0.00    +0.163 C 
ATOM      8  C   UNL     1       4.865   4.552   0.757  0.00  0.00    +0.056 C 
ATOM      9  N   UNL     1       6.233   4.309  -1.252  0.00  0.00    -0.289 N 
ATOM     10  C   UNL     1       6.199   4.849   0.093  0.00  0.00    +0.113 C 
ATOM     11  C   UNL     1       6.866   5.045  -2.283  0.00  0.00    +0.283 C 
ATOM     12  O   UNL     1       7.568   4.473  -3.121  0.00  0.00    -0.267 OA
ENDROOT
BRANCH  11  13
ATOM     13  C   UNL     1       6.447   6.459  -2.433  0.00  0.00    +0.194 A 
ATOM     14  O   UNL     1       5.192   6.725  -1.912  0.00  0.00    -0.450 OA
ATOM     15  C   UNL     1       6.637   7.401  -3.455  0.00  0.00    +0.008 A 
ATOM     16  C   UNL     1       4.476   7.194  -2.965  0.00  0.00    +0.136 A 
ATOM     17  C   UNL     1       5.328   7.521  -4.009  0.00  0.00    +0.024 A 
ATOM     18  C   UNL     1       7.834   8.142  -3.941  0.00  0.00    +0.048 C 
ATOM     19  C   UNL     1       3.094   7.263  -3.007  0.00  0.00    +0.047 A 
ATOM     20  C   UNL     1       4.762   7.905  -5.235  0.00  0.00    +0.012 A 
ATOM     21  C   UNL     1       2.552   7.572  -4.253  0.00  0.00    +0.004 A 
ATOM     22  C   UNL     1       3.366   7.866  -5.355  0.00  0.00    +0.001 A 
ENDBRANCH  11  13
BRANCH   1  24
ATOM     23  O   UNL     1       2.075  -1.240   1.169  0.00  0.00    -0.268 OA
ATOM     24  C   UNL     1       2.991  -0.980   0.389  0.00  0.00    +0.267 C 
ATOM     25  N   UNL     1       3.575  -1.922  -0.439  0.00  0.00    -0.277 N 
ATOM     26  H   UNL     1       4.312  -1.597  -1.005  0.00  0.00    +0.155 HD
BRANCH  25  27
ATOM     27  C   UNL     1       3.250  -3.297  -0.580  0.00  0.00    +0.079 A 
ATOM     28  C   UNL     1       2.425  -4.220   0.080  0.00  0.00    +0.088 A 
ATOM     29  C   UNL     1       3.872  -4.099  -1.571  0.00  0.00    +0.158 A 
ATOM     30  N   UNL     1       2.493  -5.425  -0.668  0.00  0.00    -0.238 N 
ATOM     31  C   UNL     1       1.601  -4.284   1.262  0.00  0.00    +0.030 A 
ATOM     32  N   UNL     1       3.389  -5.336  -1.667  0.00  0.00    -0.173 NA
ATOM     33  C   UNL     1       1.745  -6.563  -0.346  0.00  0.00    +0.113 A 
ATOM     34  C   UNL     1       0.953  -5.424   1.588  0.00  0.00    +0.004 A 
ATOM     35  C   UNL     1       0.978  -6.608   0.743  0.00  0.00    +0.020 A 
ENDBRANCH  25  27
ENDBRANCH   1  24
TORSDOF 3
