REMARK  Name = CTX-1020698
REMARK  6 active torsions:
REMARK  status: ('A' for Active; 'I' for Inactive)
REMARK    1  A    between atoms: C_2  and  C_4
REMARK    2  A    between atoms: N_3  and  C_5
REMARK    3  A    between atoms: C_5  and  C_8
REMARK    4  A    between atoms: C_19  and  C_22
REMARK    5  A    between atoms: C_21  and  C_24
REMARK    6  A    between atoms: C_28  and  C_33
REMARK                            x       y       z     vdW  Elec       q    Type
REMARK                         _______ _______ _______ _____ _____    ______ ____
ROOT
ATOM      1  C   UNL     1       2.996   1.279  -0.336  0.00  0.00    +0.126 A 
ATOM      2  N   UNL     1       4.035   1.153  -1.220  0.00  0.00    -0.245 NA
ATOM      3  C   UNL     1       2.525   2.497   0.138  0.00  0.00    +0.033 A 
ATOM      4  C   UNL     1       4.624   2.313  -1.655  0.00  0.00    +0.063 A 
ATOM      5  C   UNL     1       3.142   3.657  -0.297  0.00  0.00    +0.008 A 
ATOM      6  C   UNL     1       4.209   3.578  -1.196  0.00  0.00    -0.023 A 
ATOM      7  C   UNL     1       5.790   2.212  -2.651  0.00  0.00    +0.163 C 
ATOM      8  C   UNL     1       4.824   4.858  -1.701  0.00  0.00    +0.056 C 
ATOM      9  N   UNL     1       6.132   3.496  -3.275  0.00  0.00    -0.289 N 
ATOM     10  C   UNL     1       6.168   4.645  -2.384  0.00  0.00    +0.113 C 
ATOM     11  C   UNL     1       6.590   3.561  -4.597  0.00  0.00    +0.283 C 
ATOM     12  O   UNL     1       7.153   2.603  -5.124  0.00  0.00    -0.267 OA
ENDROOT
BRANCH  11  13
ATOM     13  C   UNL     1       6.115   4.722  -5.369  0.00  0.00    +0.194 A 
ATOM     14  O   UNL     1       4.936   5.264  -4.901  0.00  0.00    -0.450 OA
ATOM     15  C   UNL     1       6.164   5.011  -6.735  0.00  0.00    +0.008 A 
ATOM     16  C   UNL     1       4.078   5.181  -5.949  0.00  0.00    +0.136 A 
ATOM     17  C   UNL     1       4.791   4.912  -7.112  0.00  0.00    +0.024 A 
ATOM     18  C   UNL     1       7.304   5.250  -7.649  0.00  0.00    +0.048 C 
ATOM     19  C   UNL     1       2.704   5.266  -5.844  0.00  0.00    +0.047 A 
ATOM     20  C   UNL     1       4.063   4.640  -8.281  0.00  0.00    +0.012 A 
ATOM     21  C   UNL     1       2.000   4.941  -7.004  0.00  0.00    +0.004 A 
ATOM     22  C   UNL     1       2.663   4.610  -8.194  0.00  0.00    +0.001 A 
ENDBRANCH  11  13
BRANCH   1  24
ATOM     23  O   UNL     1       1.327   0.136   0.910  0.00  0.00    -0.269 OA
ATOM     24  C   UNL     1       2.293   0.042   0.156  0.00  0.00    +0.263 C 
ATOM     25  N   UNL     1       2.783  -1.167  -0.280  0.00  0.00    -0.306 N 
ATOM     26  H   UNL     1       3.576  -1.182  -0.864  0.00  0.00    +0.149 HD
BRANCH  25  27
ATOM     27  C   UNL     1       2.162  -2.417   0.097  0.00  0.00    +0.140 C 
BRANCH  27  28
ATOM     28  C   UNL     1       3.069  -3.269   0.945  0.00  0.00    -0.030 A 
ATOM     29  C   UNL     1       3.112  -3.097   2.332  0.00  0.00    +0.006 A 
ATOM     30  C   UNL     1       3.876  -4.254   0.370  0.00  0.00    +0.006 A 
ATOM     31  C   UNL     1       3.922  -3.915   3.129  0.00  0.00    +0.009 A 
ATOM     32  C   UNL     1       4.676  -5.080   1.174  0.00  0.00    +0.009 A 
ATOM     33  C   UNL     1       4.714  -4.935   2.572  0.00  0.00    -0.018 A 
BRANCH  33  34
ATOM     34  C   UNL     1       5.542  -5.817   3.428  0.00  0.00    -0.015 A 
ATOM     35  C   UNL     1       5.114  -6.216   4.702  0.00  0.00    +0.028 A 
ATOM     36  C   UNL     1       6.798  -6.291   3.011  0.00  0.00    +0.028 A 
ATOM     37  C   UNL     1       5.928  -7.025   5.479  0.00  0.00    +0.111 A 
ATOM     38  C   UNL     1       7.537  -7.101   3.850  0.00  0.00    +0.111 A 
ATOM     39  N   UNL     1       7.133  -7.473   5.078  0.00  0.00    -0.263 NA
ENDBRANCH  33  34
ENDBRANCH  27  28
ENDBRANCH  25  27
ENDBRANCH   1  24
TORSDOF 5
