REMARK  Name = CTX-1020695
REMARK  5 active torsions:
REMARK  status: ('A' for Active; 'I' for Inactive)
REMARK    1  A    between atoms: C_2  and  C_4
REMARK    2  A    between atoms: N_3  and  C_5
REMARK    3  A    between atoms: C_5  and  C_8
REMARK    4  A    between atoms: C_22  and  C_26
REMARK    5  A    between atoms: C_29  and  C_32
REMARK                            x       y       z     vdW  Elec       q    Type
REMARK                         _______ _______ _______ _____ _____    ______ ____
ROOT
ATOM      1  C   UNL     1       2.996   0.992  -0.828  0.00  0.00    +0.126 A 
ATOM      2  N   UNL     1       4.008   0.623  -1.676  0.00  0.00    -0.245 NA
ATOM      3  C   UNL     1       2.519   2.291  -0.709  0.00  0.00    +0.033 A 
ATOM      4  C   UNL     1       4.549   1.620  -2.460  0.00  0.00    +0.063 A 
ATOM      5  C   UNL     1       3.091   3.281  -1.490  0.00  0.00    +0.008 A 
ATOM      6  C   UNL     1       4.120   2.954  -2.373  0.00  0.00    -0.023 A 
ATOM      7  C   UNL     1       5.679   1.246  -3.437  0.00  0.00    +0.163 C 
ATOM      8  C   UNL     1       4.673   4.035  -3.271  0.00  0.00    +0.056 C 
ATOM      9  N   UNL     1       5.936   2.282  -4.449  0.00  0.00    -0.289 N 
ATOM     10  C   UNL     1       5.983   3.647  -3.946  0.00  0.00    +0.113 C 
ATOM     11  C   UNL     1       6.273   1.940  -5.771  0.00  0.00    +0.283 C 
ATOM     12  O   UNL     1       6.777   0.846  -6.030  0.00  0.00    -0.267 OA
ENDROOT
BRANCH  11  13
ATOM     13  C   UNL     1       5.765   2.846  -6.824  0.00  0.00    +0.194 A 
ATOM     14  O   UNL     1       4.626   3.536  -6.444  0.00  0.00    -0.450 OA
ATOM     15  C   UNL     1       5.627   2.657  -8.206  0.00  0.00    +0.008 A 
ATOM     16  C   UNL     1       3.658   3.065  -7.265  0.00  0.00    +0.136 A 
ATOM     17  C   UNL     1       4.228   2.407  -8.341  0.00  0.00    +0.024 A 
ATOM     18  C   UNL     1       6.600   2.715  -9.320  0.00  0.00    +0.048 C 
ATOM     19  C   UNL     1       2.310   3.188  -7.026  0.00  0.00    +0.047 A 
ATOM     20  C   UNL     1       3.385   1.772  -9.263  0.00  0.00    +0.012 A 
ATOM     21  C   UNL     1       1.474   2.493  -7.916  0.00  0.00    +0.004 A 
ATOM     22  C   UNL     1       2.008   1.786  -9.006  0.00  0.00    +0.001 A 
ENDBRANCH  11  13
BRANCH   1  24
ATOM     23  O   UNL     1       1.354   0.251   0.714  0.00  0.00    -0.269 OA
ATOM     24  C   UNL     1       2.320  -0.053   0.018  0.00  0.00    +0.263 C 
ATOM     25  N   UNL     1       2.825  -1.332  -0.034  0.00  0.00    -0.306 N 
ATOM     26  H   UNL     1       3.624  -1.514  -0.578  0.00  0.00    +0.149 HD
BRANCH  25  27
ATOM     27  C   UNL     1       2.203  -2.413   0.698  0.00  0.00    +0.140 C 
BRANCH  27  28
ATOM     28  C   UNL     1       3.140  -3.050   1.690  0.00  0.00    -0.029 A 
ATOM     29  C   UNL     1       3.262  -2.534   2.992  0.00  0.00    +0.028 A 
ATOM     30  C   UNL     1       3.906  -4.164   1.330  0.00  0.00    +0.005 A 
ATOM     31  C   UNL     1       4.099  -3.137   3.942  0.00  0.00    +0.031 A 
ATOM     32  C   UNL     1       4.773  -4.749   2.252  0.00  0.00    +0.006 A 
ATOM     33  N   UNL     1       4.239  -2.549   5.211  0.00  0.00    -0.344 N 
ATOM     34  C   UNL     1       4.890  -4.231   3.550  0.00  0.00    -0.026 A 
ATOM     35  C   UNL     1       4.810  -3.404   6.242  0.00  0.00    +0.102 C 
ATOM     36  C   UNL     1       5.823  -4.899   4.530  0.00  0.00    +0.038 C 
ATOM     37  C   UNL     1       6.108  -4.018   5.742  0.00  0.00    +0.023 C 
ATOM     38  H   UNL     1       3.968  -1.619   5.391  0.00  0.00    +0.146 HD
ENDBRANCH  27  28
ENDBRANCH  25  27
ENDBRANCH   1  24
TORSDOF 4
