MODEL 1
REMARK VINA RESULT:   -12.706      0.000      0.000
REMARK INTER + INTRA:         -17.646
REMARK INTER:                 -16.791
REMARK INTRA:                  -0.854
REMARK UNBOUND:                -0.854
REMARK  Name = CTX-1020882
REMARK  8 active torsions:
REMARK  status: ('A' for Active; 'I' for Inactive)
REMARK    1  A    between atoms: C_2  and  C_4
REMARK    2  A    between atoms: N_9  and  C_12
REMARK    3  A    between atoms: C_12  and  C_14
REMARK    4  A    between atoms: C_15  and  C_19
REMARK    5  A    between atoms: C_23  and  C_27
REMARK    6  A    between atoms: C_24  and  N_28
REMARK    7  A    between atoms: C_29  and  O_33
REMARK    8  A    between atoms: N_38  and  C_39
REMARK                            x       y       z     vdW  Elec       q    Type
REMARK                         _______ _______ _______ _____ _____    ______ ____
ROOT
ATOM      1  S   UNL     1      27.823   4.562 -24.075  0.00  0.00    -0.088 S 
ATOM      2  C   UNL     1      28.670   4.223 -22.626  0.00  0.00    +0.074 A 
ATOM      3  C   UNL     1      26.821   3.200 -23.882  0.00  0.00    -0.003 A 
ATOM      4  C   UNL     1      28.198   3.066 -22.034  0.00  0.00    +0.026 A 
ATOM      5  C   UNL     1      27.124   2.468 -22.762  0.00  0.00    -0.019 A 
ATOM      6  C   UNL     1      25.681   2.880 -24.792  0.00  0.00    +0.062 C 
ATOM      7  C   UNL     1      26.388   1.246 -22.335  0.00  0.00    +0.144 C 
ATOM      8  C   UNL     1      25.152   1.470 -24.488  0.00  0.00    +0.113 C 
ATOM      9  N   UNL     1      25.135   1.138 -23.049  0.00  0.00    -0.290 N 
ATOM     10  C   UNL     1      24.042   0.425 -22.569  0.00  0.00    +0.283 C 
ATOM     11  O   UNL     1      23.006   0.432 -23.247  0.00  0.00    -0.267 OA
ENDROOT
BRANCH  10  12
ATOM     12  C   UNL     1      24.068  -0.348 -21.304  0.00  0.00    +0.194 A 
ATOM     13  O   UNL     1      24.179  -1.708 -21.596  0.00  0.00    -0.446 OA
ATOM     14  C   UNL     1      23.293  -0.313 -20.131  0.00  0.00    +0.008 A 
ATOM     15  C   UNL     1      22.956  -2.203 -21.270  0.00  0.00    +0.177 A 
ATOM     16  C   UNL     1      22.344  -1.357 -20.363  0.00  0.00    +0.027 A 
ATOM     17  C   UNL     1      23.290   0.579 -18.943  0.00  0.00    +0.048 C 
ATOM     18  C   UNL     1      22.376  -3.336 -21.814  0.00  0.00    +0.160 A 
ATOM     19  C   UNL     1      21.057  -1.688 -19.912  0.00  0.00    +0.012 A 
ATOM     20  C   UNL     1      21.054  -3.582 -21.470  0.00  0.00    +0.049 A 
ATOM     21  C   UNL     1      20.402  -2.767 -20.532  0.00  0.00    +0.004 A 
BRANCH  18  22
ATOM     22  O   UNL     1      23.016  -4.103 -22.749  0.00  0.00    -0.503 OA
ATOM     23  H   UNL     1      23.924  -4.308 -22.644  0.00  0.00    +0.292 HD
ENDBRANCH  18  22
ENDBRANCH  10  12
BRANCH   2  24
ATOM     24  C   UNL     1      29.737   5.056 -22.099  0.00  0.00    +0.251 C 
ATOM     25  O   UNL     1      30.671   4.585 -21.453  0.00  0.00    -0.270 OA
ATOM     26  N   UNL     1      29.651   6.404 -22.359  0.00  0.00    -0.307 N 
ATOM     27  H   UNL     1      28.883   6.741 -22.874  0.00  0.00    +0.149 HD
BRANCH  26  28
ATOM     28  C   UNL     1      30.651   7.339 -21.900  0.00  0.00    +0.139 C 
BRANCH  28  29
ATOM     29  C   UNL     1      31.675   7.618 -22.968  0.00  0.00    -0.030 A 
ATOM     30  C   UNL     1      32.985   7.946 -22.622  0.00  0.00    +0.007 A 
ATOM     31  C   UNL     1      31.343   7.496 -24.322  0.00  0.00    +0.007 A 
ATOM     32  C   UNL     1      33.931   8.184 -23.618  0.00  0.00    +0.023 A 
ATOM     33  C   UNL     1      32.309   7.725 -25.316  0.00  0.00    +0.023 A 
ATOM     34  C   UNL     1      33.618   8.093 -24.983  0.00  0.00    +0.030 A 
BRANCH  34  35
ATOM     35  N   UNL     1      34.620   8.336 -25.912  0.00  0.00    -0.333 N 
ATOM     36  C   UNL     1      36.042   8.318 -25.531  0.00  0.00    +0.086 C 
ATOM     37  C   UNL     1      34.396   7.741 -27.247  0.00  0.00    +0.086 C 
ATOM     38  C   UNL     1      36.859   9.082 -26.608  0.00  0.00    -0.060 C 
ATOM     39  C   UNL     1      35.218   8.519 -28.295  0.00  0.00    -0.060 C 
ATOM     40  N   UNL     1      36.666   8.542 -27.976  0.00  0.00    +0.380 N 
ATOM     41  C   UNL     1      37.383   9.351 -28.960  0.00  0.00    -0.096 C 
ATOM     42  H   UNL     1      37.038   7.593 -28.014  0.00  0.00    -0.082 HD
ENDBRANCH  34  35
ENDBRANCH  28  29
ENDBRANCH  26  28
ENDBRANCH   2  24
TORSDOF 6
ENDMDL
MODEL 2
REMARK VINA RESULT:   -12.191      1.331      2.069
REMARK INTER + INTRA:         -16.965
REMARK INTER:                 -16.169
REMARK INTRA:                  -0.795
REMARK UNBOUND:                -0.854
REMARK  Name = CTX-1020882
REMARK  8 active torsions:
REMARK  status: ('A' for Active; 'I' for Inactive)
REMARK    1  A    between atoms: C_2  and  C_4
REMARK    2  A    between atoms: N_9  and  C_12
REMARK    3  A    between atoms: C_12  and  C_14
REMARK    4  A    between atoms: C_15  and  C_19
REMARK    5  A    between atoms: C_23  and  C_27
REMARK    6  A    between atoms: C_24  and  N_28
REMARK    7  A    between atoms: C_29  and  O_33
REMARK    8  A    between atoms: N_38  and  C_39
REMARK                            x       y       z     vdW  Elec       q    Type
REMARK                         _______ _______ _______ _____ _____    ______ ____
ROOT
ATOM      1  S   UNL     1      28.213   5.094 -24.107  0.00  0.00    -0.088 S 
ATOM      2  C   UNL     1      29.196   4.866 -22.723  0.00  0.00    +0.074 A 
ATOM      3  C   UNL     1      27.277   3.719 -23.745  0.00  0.00    -0.003 A 
ATOM      4  C   UNL     1      28.816   3.735 -22.025  0.00  0.00    +0.026 A 
ATOM      5  C   UNL     1      27.702   3.065 -22.618  0.00  0.00    -0.019 A 
ATOM      6  C   UNL     1      26.071   3.314 -24.529  0.00  0.00    +0.062 C 
ATOM      7  C   UNL     1      27.046   1.851 -22.056  0.00  0.00    +0.144 C 
ATOM      8  C   UNL     1      25.617   1.911 -24.097  0.00  0.00    +0.113 C 
ATOM      9  N   UNL     1      25.739   1.666 -22.646  0.00  0.00    -0.290 N 
ATOM     10  C   UNL     1      24.716   0.954 -22.029  0.00  0.00    +0.283 C 
ATOM     11  O   UNL     1      23.625   0.892 -22.610  0.00  0.00    -0.267 OA
ENDROOT
BRANCH  10  12
ATOM     12  C   UNL     1      24.880   0.261 -20.729  0.00  0.00    +0.194 A 
ATOM     13  O   UNL     1      24.058  -0.866 -20.700  0.00  0.00    -0.446 OA
ATOM     14  C   UNL     1      24.904   0.699 -19.393  0.00  0.00    +0.008 A 
ATOM     15  C   UNL     1      23.087  -0.529 -19.811  0.00  0.00    +0.177 A 
ATOM     16  C   UNL     1      23.557   0.466 -18.972  0.00  0.00    +0.027 A 
ATOM     17  C   UNL     1      25.948   1.343 -18.555  0.00  0.00    +0.048 C 
ATOM     18  C   UNL     1      21.801  -1.041 -19.791  0.00  0.00    +0.160 A 
ATOM     19  C   UNL     1      22.693   0.966 -17.987  0.00  0.00    +0.012 A 
ATOM     20  C   UNL     1      20.911  -0.446 -18.907  0.00  0.00    +0.049 A 
ATOM     21  C   UNL     1      21.351   0.546 -18.017  0.00  0.00    +0.004 A 
BRANCH  18  22
ATOM     22  O   UNL     1      21.382  -1.988 -20.684  0.00  0.00    -0.503 OA
ATOM     23  H   UNL     1      20.554  -2.410 -20.566  0.00  0.00    +0.292 HD
ENDBRANCH  18  22
ENDBRANCH  10  12
BRANCH   2  24
ATOM     24  C   UNL     1      30.278   5.758 -22.344  0.00  0.00    +0.251 C 
ATOM     25  O   UNL     1      31.236   5.372 -21.678  0.00  0.00    -0.270 OA
ATOM     26  N   UNL     1      30.178   7.063 -22.768  0.00  0.00    -0.307 N 
ATOM     27  H   UNL     1      29.391   7.333 -23.293  0.00  0.00    +0.149 HD
BRANCH  26  28
ATOM     28  C   UNL     1      31.190   8.047 -22.466  0.00  0.00    +0.139 C 
BRANCH  28  29
ATOM     29  C   UNL     1      32.250   8.092 -23.534  0.00  0.00    -0.030 A 
ATOM     30  C   UNL     1      31.948   7.728 -24.846  0.00  0.00    +0.007 A 
ATOM     31  C   UNL     1      33.538   8.553 -23.240  0.00  0.00    +0.007 A 
ATOM     32  C   UNL     1      32.931   7.790 -25.832  0.00  0.00    +0.023 A 
ATOM     33  C   UNL     1      34.517   8.625 -24.246  0.00  0.00    +0.023 A 
ATOM     34  C   UNL     1      34.237   8.226 -25.558  0.00  0.00    +0.030 A 
BRANCH  34  35
ATOM     35  N   UNL     1      35.155   8.269 -26.598  0.00  0.00    -0.333 N 
ATOM     36  C   UNL     1      34.808   8.851 -27.905  0.00  0.00    +0.086 C 
ATOM     37  C   UNL     1      36.542   8.588 -26.199  0.00  0.00    +0.086 C 
ATOM     38  C   UNL     1      35.811   8.328 -28.969  0.00  0.00    -0.060 C 
ATOM     39  C   UNL     1      37.515   8.057 -27.272  0.00  0.00    -0.060 C 
ATOM     40  N   UNL     1      37.227   8.604 -28.619  0.00  0.00    +0.380 N 
ATOM     41  C   UNL     1      38.130   8.014 -29.604  0.00  0.00    -0.096 C 
ATOM     42  H   UNL     1      37.376   9.613 -28.617  0.00  0.00    -0.082 HD
ENDBRANCH  34  35
ENDBRANCH  28  29
ENDBRANCH  26  28
ENDBRANCH   2  24
TORSDOF 6
ENDMDL
MODEL 3
REMARK VINA RESULT:   -11.698      3.699      5.982
REMARK INTER + INTRA:         -16.313
REMARK INTER:                 -15.469
REMARK INTRA:                  -0.844
REMARK UNBOUND:                -0.854
REMARK  Name = CTX-1020882
REMARK  8 active torsions:
REMARK  status: ('A' for Active; 'I' for Inactive)
REMARK    1  A    between atoms: C_2  and  C_4
REMARK    2  A    between atoms: N_9  and  C_12
REMARK    3  A    between atoms: C_12  and  C_14
REMARK    4  A    between atoms: C_15  and  C_19
REMARK    5  A    between atoms: C_23  and  C_27
REMARK    6  A    between atoms: C_24  and  N_28
REMARK    7  A    between atoms: C_29  and  O_33
REMARK    8  A    between atoms: N_38  and  C_39
REMARK                            x       y       z     vdW  Elec       q    Type
REMARK                         _______ _______ _______ _____ _____    ______ ____
ROOT
ATOM      1  S   UNL     1      24.539   2.854 -15.151  0.00  0.00    -0.088 S 
ATOM      2  C   UNL     1      25.622   3.275 -16.409  0.00  0.00    +0.074 A 
ATOM      3  C   UNL     1      23.469   2.100 -16.238  0.00  0.00    -0.003 A 
ATOM      4  C   UNL     1      25.141   2.862 -17.637  0.00  0.00    +0.026 A 
ATOM      5  C   UNL     1      23.888   2.181 -17.542  0.00  0.00    -0.019 A 
ATOM      6  C   UNL     1      22.244   1.361 -15.810  0.00  0.00    +0.062 C 
ATOM      7  C   UNL     1      23.160   1.581 -18.694  0.00  0.00    +0.144 C 
ATOM      8  C   UNL     1      21.383   1.026 -17.037  0.00  0.00    +0.113 C 
ATOM      9  N   UNL     1      22.167   0.639 -18.227  0.00  0.00    -0.290 N 
ATOM     10  C   UNL     1      21.675  -0.402 -19.007  0.00  0.00    +0.283 C 
ATOM     11  O   UNL     1      20.853  -1.171 -18.491  0.00  0.00    -0.267 OA
ENDROOT
BRANCH  10  12
ATOM     12  C   UNL     1      22.074  -0.617 -20.418  0.00  0.00    +0.194 A 
ATOM     13  O   UNL     1      20.986  -1.113 -21.136  0.00  0.00    -0.446 OA
ATOM     14  C   UNL     1      23.188  -1.222 -21.029  0.00  0.00    +0.008 A 
ATOM     15  C   UNL     1      21.328  -2.405 -21.382  0.00  0.00    +0.177 A 
ATOM     16  C   UNL     1      22.703  -2.537 -21.311  0.00  0.00    +0.027 A 
ATOM     17  C   UNL     1      24.579  -0.765 -21.281  0.00  0.00    +0.048 C 
ATOM     18  C   UNL     1      20.441  -3.446 -21.595  0.00  0.00    +0.160 A 
ATOM     19  C   UNL     1      23.259  -3.809 -21.521  0.00  0.00    +0.012 A 
ATOM     20  C   UNL     1      20.987  -4.721 -21.664  0.00  0.00    +0.049 A 
ATOM     21  C   UNL     1      22.378  -4.900 -21.626  0.00  0.00    +0.004 A 
BRANCH  18  22
ATOM     22  O   UNL     1      19.086  -3.257 -21.602  0.00  0.00    -0.503 OA
ATOM     23  H   UNL     1      18.577  -3.545 -22.333  0.00  0.00    +0.292 HD
ENDBRANCH  18  22
ENDBRANCH  10  12
BRANCH   2  24
ATOM     24  C   UNL     1      26.881   3.969 -16.195  0.00  0.00    +0.251 C 
ATOM     25  O   UNL     1      26.928   5.180 -15.990  0.00  0.00    -0.270 OA
ATOM     26  N   UNL     1      28.021   3.202 -16.234  0.00  0.00    -0.307 N 
ATOM     27  H   UNL     1      27.940   2.236 -16.408  0.00  0.00    +0.149 HD
BRANCH  26  28
ATOM     28  C   UNL     1      29.333   3.767 -16.028  0.00  0.00    +0.139 C 
BRANCH  28  29
ATOM     29  C   UNL     1      29.860   4.409 -17.285  0.00  0.00    -0.030 A 
ATOM     30  C   UNL     1      29.715   3.774 -18.517  0.00  0.00    +0.007 A 
ATOM     31  C   UNL     1      30.449   5.678 -17.243  0.00  0.00    +0.007 A 
ATOM     32  C   UNL     1      30.189   4.384 -19.677  0.00  0.00    +0.023 A 
ATOM     33  C   UNL     1      30.910   6.289 -18.421  0.00  0.00    +0.023 A 
ATOM     34  C   UNL     1      30.806   5.644 -19.660  0.00  0.00    +0.030 A 
BRANCH  34  35
ATOM     35  N   UNL     1      31.240   6.188 -20.860  0.00  0.00    -0.333 N 
ATOM     36  C   UNL     1      32.635   6.620 -21.048  0.00  0.00    +0.086 C 
ATOM     37  C   UNL     1      30.689   5.550 -22.074  0.00  0.00    +0.086 C 
ATOM     38  C   UNL     1      32.699   7.600 -22.251  0.00  0.00    -0.060 C 
ATOM     39  C   UNL     1      30.764   6.545 -23.251  0.00  0.00    -0.060 C 
ATOM     40  N   UNL     1      32.145   7.023 -23.501  0.00  0.00    +0.380 N 
ATOM     41  C   UNL     1      32.146   8.014 -24.574  0.00  0.00    -0.096 C 
ATOM     42  H   UNL     1      32.730   6.240 -23.792  0.00  0.00    -0.082 HD
ENDBRANCH  34  35
ENDBRANCH  28  29
ENDBRANCH  26  28
ENDBRANCH   2  24
TORSDOF 6
ENDMDL
MODEL 4
REMARK VINA RESULT:   -11.265      4.218      6.495
REMARK INTER + INTRA:         -15.742
REMARK INTER:                 -15.324
REMARK INTRA:                  -0.417
REMARK UNBOUND:                -0.854
REMARK  Name = CTX-1020882
REMARK  8 active torsions:
REMARK  status: ('A' for Active; 'I' for Inactive)
REMARK    1  A    between atoms: C_2  and  C_4
REMARK    2  A    between atoms: N_9  and  C_12
REMARK    3  A    between atoms: C_12  and  C_14
REMARK    4  A    between atoms: C_15  and  C_19
REMARK    5  A    between atoms: C_23  and  C_27
REMARK    6  A    between atoms: C_24  and  N_28
REMARK    7  A    between atoms: C_29  and  O_33
REMARK    8  A    between atoms: N_38  and  C_39
REMARK                            x       y       z     vdW  Elec       q    Type
REMARK                         _______ _______ _______ _____ _____    ______ ____
ROOT
ATOM      1  S   UNL     1      25.549   2.778 -14.552  0.00  0.00    -0.088 S 
ATOM      2  C   UNL     1      26.257   2.598 -16.101  0.00  0.00    +0.074 A 
ATOM      3  C   UNL     1      23.978   2.589 -15.180  0.00  0.00    -0.003 A 
ATOM      4  C   UNL     1      25.289   2.426 -17.073  0.00  0.00    +0.026 A 
ATOM      5  C   UNL     1      23.963   2.423 -16.541  0.00  0.00    -0.019 A 
ATOM      6  C   UNL     1      22.752   2.532 -14.328  0.00  0.00    +0.062 C 
ATOM      7  C   UNL     1      22.728   2.206 -17.345  0.00  0.00    +0.144 C 
ATOM      8  C   UNL     1      21.499   2.609 -15.215  0.00  0.00    +0.113 C 
ATOM      9  N   UNL     1      21.620   1.862 -16.483  0.00  0.00    -0.290 N 
ATOM     10  C   UNL     1      20.504   1.156 -16.918  0.00  0.00    +0.283 C 
ATOM     11  O   UNL     1      19.631   0.883 -16.083  0.00  0.00    -0.267 OA
ENDROOT
BRANCH  10  12
ATOM     12  C   UNL     1      20.308   0.735 -18.326  0.00  0.00    +0.194 A 
ATOM     13  O   UNL     1      19.279  -0.204 -18.389  0.00  0.00    -0.446 OA
ATOM     14  C   UNL     1      21.187   0.346 -19.352  0.00  0.00    +0.008 A 
ATOM     15  C   UNL     1      19.924  -1.365 -18.674  0.00  0.00    +0.177 A 
ATOM     16  C   UNL     1      21.142  -1.081 -19.267  0.00  0.00    +0.027 A 
ATOM     17  C   UNL     1      22.066   1.106 -20.279  0.00  0.00    +0.048 C 
ATOM     18  C   UNL     1      19.476  -2.635 -18.354  0.00  0.00    +0.160 A 
ATOM     19  C   UNL     1      21.972  -2.154 -19.625  0.00  0.00    +0.012 A 
ATOM     20  C   UNL     1      20.359  -3.681 -18.584  0.00  0.00    +0.049 A 
ATOM     21  C   UNL     1      21.592  -3.443 -19.210  0.00  0.00    +0.004 A 
BRANCH  18  22
ATOM     22  O   UNL     1      18.282  -2.845 -17.719  0.00  0.00    -0.503 OA
ATOM     23  H   UNL     1      17.754  -3.584 -17.947  0.00  0.00    +0.292 HD
ENDBRANCH  18  22
ENDBRANCH  10  12
BRANCH   2  24
ATOM     24  C   UNL     1      27.690   2.618 -16.342  0.00  0.00    +0.251 C 
ATOM     25  O   UNL     1      28.309   1.607 -16.667  0.00  0.00    -0.270 OA
ATOM     26  N   UNL     1      28.323   3.829 -16.187  0.00  0.00    -0.307 N 
ATOM     27  H   UNL     1      27.791   4.613 -15.918  0.00  0.00    +0.149 HD
BRANCH  26  28
ATOM     28  C   UNL     1      29.741   3.987 -16.405  0.00  0.00    +0.139 C 
BRANCH  28  29
ATOM     29  C   UNL     1      30.026   4.604 -17.749  0.00  0.00    -0.030 A 
ATOM     30  C   UNL     1      29.852   3.865 -18.917  0.00  0.00    +0.007 A 
ATOM     31  C   UNL     1      30.413   5.945 -17.848  0.00  0.00    +0.007 A 
ATOM     32  C   UNL     1      30.100   4.450 -20.158  0.00  0.00    +0.023 A 
ATOM     33  C   UNL     1      30.647   6.529 -19.105  0.00  0.00    +0.023 A 
ATOM     34  C   UNL     1      30.513   5.786 -20.284  0.00  0.00    +0.030 A 
BRANCH  34  35
ATOM     35  N   UNL     1      30.729   6.297 -21.556  0.00  0.00    -0.333 N 
ATOM     36  C   UNL     1      29.799   6.021 -22.663  0.00  0.00    +0.086 C 
ATOM     37  C   UNL     1      31.245   7.681 -21.597  0.00  0.00    +0.086 C 
ATOM     38  C   UNL     1      30.528   6.287 -24.008  0.00  0.00    -0.060 C 
ATOM     39  C   UNL     1      31.964   7.917 -22.942  0.00  0.00    -0.060 C 
ATOM     40  N   UNL     1      31.085   7.659 -24.106  0.00  0.00    +0.380 N 
ATOM     41  C   UNL     1      31.835   7.827 -25.349  0.00  0.00    -0.096 C 
ATOM     42  H   UNL     1      30.315   8.329 -24.108  0.00  0.00    -0.082 HD
ENDBRANCH  34  35
ENDBRANCH  28  29
ENDBRANCH  26  28
ENDBRANCH   2  24
TORSDOF 6
ENDMDL
MODEL 5
REMARK VINA RESULT:   -10.453      3.620     13.574
REMARK INTER + INTRA:         -14.667
REMARK INTER:                 -13.874
REMARK INTRA:                  -0.793
REMARK UNBOUND:                -0.854
REMARK  Name = CTX-1020882
REMARK  8 active torsions:
REMARK  status: ('A' for Active; 'I' for Inactive)
REMARK    1  A    between atoms: C_2  and  C_4
REMARK    2  A    between atoms: N_9  and  C_12
REMARK    3  A    between atoms: C_12  and  C_14
REMARK    4  A    between atoms: C_15  and  C_19
REMARK    5  A    between atoms: C_23  and  C_27
REMARK    6  A    between atoms: C_24  and  N_28
REMARK    7  A    between atoms: C_29  and  O_33
REMARK    8  A    between atoms: N_38  and  C_39
REMARK                            x       y       z     vdW  Elec       q    Type
REMARK                         _______ _______ _______ _____ _____    ______ ____
ROOT
ATOM      1  S   UNL     1      24.932   0.962 -25.108  0.00  0.00    -0.088 S 
ATOM      2  C   UNL     1      24.572   0.767 -23.445  0.00  0.00    +0.074 A 
ATOM      3  C   UNL     1      25.891   2.335 -24.803  0.00  0.00    -0.003 A 
ATOM      4  C   UNL     1      25.162   1.762 -22.689  0.00  0.00    +0.026 A 
ATOM      5  C   UNL     1      25.927   2.677 -23.475  0.00  0.00    -0.019 A 
ATOM      6  C   UNL     1      26.674   3.044 -25.859  0.00  0.00    +0.062 C 
ATOM      7  C   UNL     1      26.713   3.816 -22.925  0.00  0.00    +0.144 C 
ATOM      8  C   UNL     1      27.217   4.369 -25.302  0.00  0.00    +0.113 C 
ATOM      9  N   UNL     1      27.672   4.284 -23.900  0.00  0.00    -0.290 N 
ATOM     10  C   UNL     1      28.833   4.971 -23.562  0.00  0.00    +0.283 C 
ATOM     11  O   UNL     1      29.602   5.291 -24.478  0.00  0.00    -0.267 OA
ENDROOT
BRANCH  10  12
ATOM     12  C   UNL     1      29.176   5.348 -22.170  0.00  0.00    +0.194 A 
ATOM     13  O   UNL     1      29.301   6.735 -22.084  0.00  0.00    -0.446 OA
ATOM     14  C   UNL     1      30.111   4.863 -21.237  0.00  0.00    +0.008 A 
ATOM     15  C   UNL     1      30.636   6.924 -21.916  0.00  0.00    +0.177 A 
ATOM     16  C   UNL     1      31.203   5.772 -21.401  0.00  0.00    +0.027 A 
ATOM     17  C   UNL     1      30.128   3.681 -20.337  0.00  0.00    +0.048 C 
ATOM     18  C   UNL     1      31.339   8.062 -22.274  0.00  0.00    +0.160 A 
ATOM     19  C   UNL     1      32.587   5.759 -21.170  0.00  0.00    +0.012 A 
ATOM     20  C   UNL     1      32.722   7.994 -22.173  0.00  0.00    +0.049 A 
ATOM     21  C   UNL     1      33.338   6.857 -21.629  0.00  0.00    +0.004 A 
BRANCH  18  22
ATOM     22  O   UNL     1      30.724   9.151 -22.829  0.00  0.00    -0.503 OA
ATOM     23  H   UNL     1      30.801   9.990 -22.420  0.00  0.00    +0.292 HD
ENDBRANCH  18  22
ENDBRANCH  10  12
BRANCH   2  24
ATOM     24  C   UNL     1      23.758  -0.314 -22.916  0.00  0.00    +0.251 C 
ATOM     25  O   UNL     1      22.718  -0.673 -23.464  0.00  0.00    -0.270 OA
ATOM     26  N   UNL     1      24.208  -0.918 -21.765  0.00  0.00    -0.307 N 
ATOM     27  H   UNL     1      25.042  -0.595 -21.353  0.00  0.00    +0.149 HD
BRANCH  26  28
ATOM     28  C   UNL     1      23.497  -2.008 -21.142  0.00  0.00    +0.139 C 
BRANCH  28  29
ATOM     29  C   UNL     1      22.530  -1.511 -20.099  0.00  0.00    -0.030 A 
ATOM     30  C   UNL     1      22.724  -0.273 -19.490  0.00  0.00    +0.007 A 
ATOM     31  C   UNL     1      21.394  -2.258 -19.768  0.00  0.00    +0.007 A 
ATOM     32  C   UNL     1      21.814   0.188 -18.539  0.00  0.00    +0.023 A 
ATOM     33  C   UNL     1      20.477  -1.777 -18.818  0.00  0.00    +0.023 A 
ATOM     34  C   UNL     1      20.680  -0.553 -18.171  0.00  0.00    +0.030 A 
BRANCH  34  35
ATOM     35  N   UNL     1      19.817  -0.019 -17.224  0.00  0.00    -0.333 N 
ATOM     36  C   UNL     1      18.766   0.942 -17.597  0.00  0.00    +0.086 C 
ATOM     37  C   UNL     1      19.359  -0.968 -16.187  0.00  0.00    +0.086 C 
ATOM     38  C   UNL     1      18.314   1.708 -16.324  0.00  0.00    -0.060 C 
ATOM     39  C   UNL     1      18.917  -0.180 -14.936  0.00  0.00    -0.060 C 
ATOM     40  N   UNL     1      17.855   0.809 -15.236  0.00  0.00    +0.380 N 
ATOM     41  C   UNL     1      17.527   1.573 -14.035  0.00  0.00    -0.096 C 
ATOM     42  H   UNL     1      17.012   0.322 -15.541  0.00  0.00    -0.082 HD
ENDBRANCH  34  35
ENDBRANCH  28  29
ENDBRANCH  26  28
ENDBRANCH   2  24
TORSDOF 6
ENDMDL
