REMARK  Name = CTX-1020696
REMARK  6 active torsions:
REMARK  status: ('A' for Active; 'I' for Inactive)
REMARK    1  A    between atoms: C_2  and  C_4
REMARK    2  A    between atoms: N_3  and  C_5
REMARK    3  A    between atoms: C_5  and  C_8
REMARK    4  A    between atoms: C_19  and  C_22
REMARK    5  A    between atoms: C_21  and  C_24
REMARK    6  A    between atoms: C_28  and  C_33
REMARK                            x       y       z     vdW  Elec       q    Type
REMARK                         _______ _______ _______ _____ _____    ______ ____
ROOT
ATOM      1  C   UNL     1       2.967   0.949   0.995  0.00  0.00    +0.126 A 
ATOM      2  N   UNL     1       4.114   1.536   0.525  0.00  0.00    -0.245 NA
ATOM      3  C   UNL     1       2.470   1.135   2.278  0.00  0.00    +0.033 A 
ATOM      4  C   UNL     1       4.775   2.378   1.378  0.00  0.00    +0.063 A 
ATOM      5  C   UNL     1       3.168   1.961   3.138  0.00  0.00    +0.008 A 
ATOM      6  C   UNL     1       4.335   2.589   2.707  0.00  0.00    -0.023 A 
ATOM      7  C   UNL     1       6.032   3.092   0.869  0.00  0.00    +0.163 C 
ATOM      8  C   UNL     1       5.048   3.538   3.634  0.00  0.00    +0.056 C 
ATOM      9  N   UNL     1       6.459   4.205   1.730  0.00  0.00    -0.289 N 
ATOM     10  C   UNL     1       6.442   3.930   3.159  0.00  0.00    +0.113 C 
ATOM     11  C   UNL     1       7.100   5.329   1.184  0.00  0.00    +0.283 C 
ATOM     12  O   UNL     1       7.628   5.276   0.073  0.00  0.00    -0.267 OA
ENDROOT
BRANCH  11  13
ATOM     13  C   UNL     1       6.891   6.604   1.903  0.00  0.00    +0.194 A 
ATOM     14  O   UNL     1       5.690   6.646   2.588  0.00  0.00    -0.450 OA
ATOM     15  C   UNL     1       7.125   7.926   1.502  0.00  0.00    +0.008 A 
ATOM     16  C   UNL     1       4.976   7.611   1.963  0.00  0.00    +0.136 A 
ATOM     17  C   UNL     1       5.820   8.384   1.171  0.00  0.00    +0.024 A 
ATOM     18  C   UNL     1       8.360   8.742   1.444  0.00  0.00    +0.048 C 
ATOM     19  C   UNL     1       3.607   7.777   2.051  0.00  0.00    +0.047 A 
ATOM     20  C   UNL     1       5.255   9.389   0.374  0.00  0.00    +0.012 A 
ATOM     21  C   UNL     1       3.057   8.737   1.214  0.00  0.00    +0.004 A 
ATOM     22  C   UNL     1       3.862   9.521   0.369  0.00  0.00    +0.001 A 
ENDBRANCH  11  13
BRANCH   1  24
ATOM     23  O   UNL     1       1.108  -0.427   0.451  0.00  0.00    -0.269 OA
ATOM     24  C   UNL     1       2.185   0.052   0.079  0.00  0.00    +0.263 C 
ATOM     25  N   UNL     1       2.730  -0.216  -1.153  0.00  0.00    -0.306 N 
ATOM     26  H   UNL     1       3.565   0.235  -1.417  0.00  0.00    +0.149 HD
BRANCH  25  27
ATOM     27  C   UNL     1       2.108  -1.142  -2.074  0.00  0.00    +0.140 C 
BRANCH  27  28
ATOM     28  C   UNL     1       1.763  -0.507  -3.396  0.00  0.00    -0.030 A 
ATOM     29  C   UNL     1       2.296  -1.018  -4.585  0.00  0.00    +0.005 A 
ATOM     30  C   UNL     1       0.850   0.553  -3.471  0.00  0.00    +0.005 A 
ATOM     31  C   UNL     1       1.931  -0.474  -5.818  0.00  0.00    +0.004 A 
ATOM     32  C   UNL     1       0.485   1.098  -4.708  0.00  0.00    +0.004 A 
ATOM     33  C   UNL     1       1.017   0.587  -5.899  0.00  0.00    -0.044 A 
BRANCH  33  34
ATOM     34  C   UNL     1       0.587   1.153  -7.243  0.00  0.00    +0.023 C 
ATOM     35  C   UNL     1      -0.112   0.084  -8.100  0.00  0.00    +0.036 C 
ATOM     36  C   UNL     1       1.762   1.783  -8.007  0.00  0.00    +0.036 C 
ATOM     37  C   UNL     1      -0.406   0.604  -9.500  0.00  0.00    +0.160 C 
ATOM     38  C   UNL     1       1.337   2.199  -9.409  0.00  0.00    +0.160 C 
ATOM     39  O   UNL     1       0.783   1.092 -10.117  0.00  0.00    -0.380 OA
ENDBRANCH  33  34
ENDBRANCH  27  28
ENDBRANCH  25  27
ENDBRANCH   1  24
TORSDOF 5
