REMARK  Name = CTX-1020734
REMARK  5 active torsions:
REMARK  status: ('A' for Active; 'I' for Inactive)
REMARK    1  A    between atoms: C_3  and  C_6
REMARK    2  A    between atoms: C_21  and  C_22
REMARK    3  A    between atoms: N_24  and  C_25
REMARK    4  A    between atoms: C_25  and  C_26
REMARK    5  A    between atoms: C_31  and  N_32
REMARK                            x       y       z     vdW  Elec       q    Type
REMARK                         _______ _______ _______ _____ _____    ______ ____
ROOT
ATOM      1  C   UNL     1       4.538  -3.202   0.819  0.00  0.00    +0.255 C 
ATOM      2  O   UNL     1       4.621  -3.332   2.033  0.00  0.00    -0.269 OA
ATOM      3  N   UNL     1       4.394  -4.441   0.011  0.00  0.00    -0.292 N 
ATOM      4  C   UNL     1       5.144  -5.959   0.212  0.00  0.00    +0.144 C 
ATOM      5  C   UNL     1       2.993  -4.421  -0.317  0.00  0.00    +0.113 C 
ATOM      6  C   UNL     1       4.224  -7.293  -0.068  0.00  0.00    -0.019 A 
ATOM      7  C   UNL     1       2.266  -5.723  -0.200  0.00  0.00    +0.062 C 
ATOM      8  C   UNL     1       2.942  -7.015  -0.420  0.00  0.00    -0.003 A 
ATOM      9  C   UNL     1       4.157  -8.835   0.037  0.00  0.00    +0.026 A 
ATOM     10  S   UNL     1       2.163  -8.181  -1.335  0.00  0.00    -0.088 S 
ATOM     11  C   UNL     1       2.845  -9.349  -0.285  0.00  0.00    +0.074 A 
ENDROOT
BRANCH   1  14
ATOM     12 CL   UNL     1       2.486  -0.491   1.818  0.00  0.00    -0.082 Cl
ATOM     13  C   UNL     1       3.645  -0.575   0.549  0.00  0.00    +0.068 A 
ATOM     14  C   UNL     1       4.317  -1.787   0.168  0.00  0.00    +0.093 A 
ATOM     15  C   UNL     1       4.008   0.703  -0.214  0.00  0.00    +0.008 A 
ATOM     16  S   UNL     1       5.131  -1.470  -1.295  0.00  0.00    -0.082 S 
ATOM     17  C   UNL     1       4.869   0.242  -1.228  0.00  0.00    +0.021 A 
ATOM     18  C   UNL     1       3.738   2.214  -0.165  0.00  0.00    +0.010 A 
ATOM     19  C   UNL     1       5.484   1.118  -2.121  0.00  0.00    +0.016 A 
ATOM     20  C   UNL     1       4.451   3.063  -1.045  0.00  0.00    +0.001 A 
ATOM     21  C   UNL     1       5.287   2.481  -1.969  0.00  0.00    +0.001 A 
ENDBRANCH   1  14
BRANCH  11  22
ATOM     22  C   UNL     1       1.849 -10.437  -0.091  0.00  0.00    +0.251 C 
ATOM     23  O   UNL     1       0.913 -10.669  -0.882  0.00  0.00    -0.270 OA
ATOM     24  N   UNL     1       1.814 -11.210   1.054  0.00  0.00    -0.307 N 
ATOM     25  H   UNL     1       0.940 -11.398   1.467  0.00  0.00    +0.149 HD
BRANCH  24  26
ATOM     26  C   UNL     1       2.983 -11.745   1.663  0.00  0.00    +0.139 C 
BRANCH  26  27
ATOM     27  C   UNL     1       3.732 -12.636   0.688  0.00  0.00    -0.030 A 
ATOM     28  C   UNL     1       3.213 -13.117  -0.509  0.00  0.00    +0.007 A 
ATOM     29  C   UNL     1       5.045 -13.018   1.033  0.00  0.00    +0.007 A 
ATOM     30  C   UNL     1       3.950 -13.838  -1.398  0.00  0.00    +0.023 A 
ATOM     31  C   UNL     1       5.818 -13.754   0.148  0.00  0.00    +0.023 A 
ATOM     32  C   UNL     1       5.260 -14.247  -1.073  0.00  0.00    +0.030 A 
BRANCH  32  33
ATOM     33  N   UNL     1       6.012 -15.021  -1.961  0.00  0.00    -0.328 N 
ATOM     34  C   UNL     1       5.508 -15.854  -3.020  0.00  0.00    +0.118 C 
ATOM     35  C   UNL     1       7.143 -15.863  -1.676  0.00  0.00    +0.118 C 
ATOM     36  C   UNL     1       6.498 -16.886  -2.555  0.00  0.00    +0.049 C 
ATOM     37  C   UNL     1       5.936 -18.139  -1.965  0.00  0.00    +0.172 C 
ATOM     38  C   UNL     1       7.224 -17.678  -3.593  0.00  0.00    +0.172 C 
ATOM     39  O   UNL     1       6.193 -18.792  -3.335  0.00  0.00    -0.378 OA
ENDBRANCH  32  33
ENDBRANCH  26  27
ENDBRANCH  24  26
ENDBRANCH  11  22
TORSDOF 5
