REMARK  Name = CTX-1020733
REMARK  4 active torsions:
REMARK  status: ('A' for Active; 'I' for Inactive)
REMARK    1  A    between atoms: C_3  and  C_6
REMARK    2  A    between atoms: C_21  and  C_22
REMARK    3  A    between atoms: N_24  and  C_25
REMARK    4  A    between atoms: C_25  and  C_26
REMARK                            x       y       z     vdW  Elec       q    Type
REMARK                         _______ _______ _______ _____ _____    ______ ____
ROOT
ATOM      1  C   UNL     1       4.090  -3.138  -0.041  0.00  0.00    +0.255 C 
ATOM      2  O   UNL     1       2.868  -2.958   0.203  0.00  0.00    -0.269 OA
ATOM      3  N   UNL     1       4.832  -4.545  -0.061  0.00  0.00    -0.292 N 
ATOM      4  C   UNL     1       5.695  -6.253  -0.077  0.00  0.00    +0.144 C 
ATOM      5  C   UNL     1       3.458  -4.916  -0.049  0.00  0.00    +0.113 C 
ATOM      6  C   UNL     1       4.704  -7.808  -0.242  0.00  0.00    -0.019 A 
ATOM      7  C   UNL     1       3.289  -6.223   0.321  0.00  0.00    +0.062 C 
ATOM      8  C   UNL     1       3.431  -7.418  -0.285  0.00  0.00    -0.003 A 
ATOM      9  C   UNL     1       4.335  -9.278  -0.130  0.00  0.00    +0.026 A 
ATOM     10  S   UNL     1       2.131  -8.118  -0.891  0.00  0.00    -0.088 S 
ATOM     11  C   UNL     1       2.874  -9.490  -0.198  0.00  0.00    +0.074 A 
ENDROOT
BRANCH   1  14
ATOM     12 CL   UNL     1       7.343  -2.320  -0.449  0.00  0.00    -0.082 Cl
ATOM     13  C   UNL     1       5.956  -1.336  -0.403  0.00  0.00    +0.068 A 
ATOM     14  C   UNL     1       4.700  -1.823  -0.207  0.00  0.00    +0.093 A 
ATOM     15  C   UNL     1       5.997   0.099  -0.596  0.00  0.00    +0.008 A 
ATOM     16  S   UNL     1       3.544  -0.495  -0.180  0.00  0.00    -0.082 S 
ATOM     17  C   UNL     1       4.725   0.661  -0.502  0.00  0.00    +0.021 A 
ATOM     18  C   UNL     1       7.080   0.985  -0.862  0.00  0.00    +0.010 A 
ATOM     19  C   UNL     1       4.489   2.029  -0.660  0.00  0.00    +0.016 A 
ATOM     20  C   UNL     1       6.860   2.358  -1.020  0.00  0.00    +0.001 A 
ATOM     21  C   UNL     1       5.572   2.857  -0.917  0.00  0.00    +0.001 A 
ENDBRANCH   1  14
BRANCH  11  22
ATOM     22  C   UNL     1       1.799 -10.449   0.026  0.00  0.00    +0.251 C 
ATOM     23  O   UNL     1       1.876 -11.653  -0.184  0.00  0.00    -0.270 OA
ATOM     24  N   UNL     1       0.563  -9.855   0.391  0.00  0.00    -0.307 N 
ATOM     25  H   UNL     1       0.510  -8.883   0.540  0.00  0.00    +0.149 HD
BRANCH  24  26
ATOM     26  C   UNL     1      -0.602 -10.661   0.544  0.00  0.00    +0.140 C 
BRANCH  26  27
ATOM     27  C   UNL     1      -0.593 -11.149   1.944  0.00  0.00    -0.027 A 
ATOM     28  C   UNL     1      -0.706 -10.248   3.002  0.00  0.00    +0.025 A 
ATOM     29  C   UNL     1      -0.400 -12.501   2.191  0.00  0.00    +0.025 A 
ATOM     30  C   UNL     1      -0.684 -10.757   4.278  0.00  0.00    +0.111 A 
ATOM     31  C   UNL     1      -0.454 -12.916   3.499  0.00  0.00    +0.111 A 
ATOM     32  N   UNL     1      -0.590 -12.075   4.552  0.00  0.00    -0.263 NA
ENDBRANCH  26  27
ENDBRANCH  24  26
ENDBRANCH  11  22
TORSDOF 4
