REMARK  Name = CTX-1020882
REMARK  8 active torsions:
REMARK  status: ('A' for Active; 'I' for Inactive)
REMARK    1  A    between atoms: C_2  and  C_4
REMARK    2  A    between atoms: N_9  and  C_12
REMARK    3  A    between atoms: C_12  and  C_14
REMARK    4  A    between atoms: C_15  and  C_19
REMARK    5  A    between atoms: C_23  and  C_27
REMARK    6  A    between atoms: C_24  and  N_28
REMARK    7  A    between atoms: C_29  and  O_33
REMARK    8  A    between atoms: N_38  and  C_39
REMARK                            x       y       z     vdW  Elec       q    Type
REMARK                         _______ _______ _______ _____ _____    ______ ____
ROOT
ATOM      1  S   UNL     1       1.880  -0.739   0.002  0.00  0.00    -0.088 S 
ATOM      2  C   UNL     1       2.204   0.940   0.092  0.00  0.00    +0.074 A 
ATOM      3  C   UNL     1       0.198  -0.479   0.026  0.00  0.00    -0.003 A 
ATOM      4  C   UNL     1       1.032   1.669   0.168  0.00  0.00    +0.026 A 
ATOM      5  C   UNL     1      -0.136   0.847   0.132  0.00  0.00    -0.019 A 
ATOM      6  C   UNL     1      -0.807  -1.573  -0.131  0.00  0.00    +0.062 C 
ATOM      7  C   UNL     1      -1.534   1.360   0.145  0.00  0.00    +0.144 C 
ATOM      8  C   UNL     1      -2.212  -1.038   0.187  0.00  0.00    +0.113 C 
ATOM      9  N   UNL     1      -2.451   0.335  -0.301  0.00  0.00    -0.290 N 
ATOM     10  C   UNL     1      -3.700   0.612  -0.846  0.00  0.00    +0.283 C 
ATOM     11  O   UNL     1      -4.387  -0.344  -1.230  0.00  0.00    -0.267 OA
ENDROOT
BRANCH  10  12
ATOM     12  C   UNL     1      -4.245   1.985  -0.970  0.00  0.00    +0.194 A 
ATOM     13  O   UNL     1      -5.626   1.919  -1.157  0.00  0.00    -0.446 OA
ATOM     14  C   UNL     1      -3.856   3.119  -1.705  0.00  0.00    +0.008 A 
ATOM     15  C   UNL     1      -5.790   2.292  -2.453  0.00  0.00    +0.177 A 
ATOM     16  C   UNL     1      -4.697   3.037  -2.859  0.00  0.00    +0.027 A 
ATOM     17  C   UNL     1      -2.803   4.148  -1.503  0.00  0.00    +0.048 C 
ATOM     18  C   UNL     1      -6.846   1.924  -3.269  0.00  0.00    +0.160 A 
ATOM     19  C   UNL     1      -4.668   3.506  -4.181  0.00  0.00    +0.012 A 
ATOM     20  C   UNL     1      -6.745   2.273  -4.609  0.00  0.00    +0.049 A 
ATOM     21  C   UNL     1      -5.669   3.053  -5.059  0.00  0.00    +0.004 A 
BRANCH  18  22
ATOM     22  O   UNL     1      -7.873   1.140  -2.819  0.00  0.00    -0.503 OA
ATOM     23  H   UNL     1      -7.926   0.913  -1.912  0.00  0.00    +0.292 HD
ENDBRANCH  18  22
ENDBRANCH  10  12
BRANCH   2  24
ATOM     24  C   UNL     1       3.542   1.507   0.082  0.00  0.00    +0.251 C 
ATOM     25  O   UNL     1       3.734   2.721   0.114  0.00  0.00    -0.270 OA
ATOM     26  N   UNL     1       4.588   0.616   0.033  0.00  0.00    -0.307 N 
ATOM     27  H   UNL     1       4.391  -0.348   0.001  0.00  0.00    +0.149 HD
BRANCH  26  28
ATOM     28  C   UNL     1       5.965   1.049   0.027  0.00  0.00    +0.139 C 
BRANCH  28  29
ATOM     29  C   UNL     1       6.671   0.622  -1.233  0.00  0.00    -0.030 A 
ATOM     30  C   UNL     1       6.218   1.055  -2.478  0.00  0.00    +0.007 A 
ATOM     31  C   UNL     1       7.825  -0.167  -1.170  0.00  0.00    +0.007 A 
ATOM     32  C   UNL     1       6.889   0.670  -3.638  0.00  0.00    +0.023 A 
ATOM     33  C   UNL     1       8.501  -0.537  -2.345  0.00  0.00    +0.023 A 
ATOM     34  C   UNL     1       8.034  -0.141  -3.604  0.00  0.00    +0.030 A 
BRANCH  34  35
ATOM     35  N   UNL     1       8.650  -0.471  -4.803  0.00  0.00    -0.333 N 
ATOM     36  C   UNL     1      10.072  -0.847  -4.858  0.00  0.00    +0.086 C 
ATOM     37  C   UNL     1       7.827  -1.275  -5.731  0.00  0.00    +0.086 C 
ATOM     38  C   UNL     1      10.579  -0.678  -6.316  0.00  0.00    -0.060 C 
ATOM     39  C   UNL     1       8.352  -1.087  -7.170  0.00  0.00    -0.060 C 
ATOM     40  N   UNL     1       9.783  -1.450  -7.302  0.00  0.00    +0.380 N 
ATOM     41  C   UNL     1      10.244  -1.185  -8.663  0.00  0.00    -0.096 C 
ATOM     42  H   UNL     1       9.901  -2.446  -7.116  0.00  0.00    -0.082 HD
ENDBRANCH  34  35
ENDBRANCH  28  29
ENDBRANCH  26  28
ENDBRANCH   2  24
TORSDOF 6
