REMARK  Name = CTX-1020699
REMARK  4 active torsions:
REMARK  status: ('A' for Active; 'I' for Inactive)
REMARK    1  A    between atoms: C_2  and  C_4
REMARK    2  A    between atoms: N_3  and  C_5
REMARK    3  A    between atoms: C_24  and  C_26
REMARK    4  A    between atoms: C_28  and  C_31
REMARK                            x       y       z     vdW  Elec       q    Type
REMARK                         _______ _______ _______ _____ _____    ______ ____
ROOT
ATOM      1  C   UNL     1       4.619  -1.146  -5.004  0.00  0.00    +0.126 A 
ATOM      2  N   UNL     1       4.039  -1.875  -6.007  0.00  0.00    -0.245 NA
ATOM      3  C   UNL     1       5.929  -0.680  -5.051  0.00  0.00    +0.033 A 
ATOM      4  C   UNL     1       4.807  -2.138  -7.114  0.00  0.00    +0.063 A 
ATOM      5  C   UNL     1       6.701  -0.982  -6.162  0.00  0.00    +0.008 A 
ATOM      6  C   UNL     1       6.152  -1.731  -7.206  0.00  0.00    -0.023 A 
ATOM      7  C   UNL     1       4.170  -2.931  -8.266  0.00  0.00    +0.163 C 
ATOM      8  C   UNL     1       6.992  -2.017  -8.428  0.00  0.00    +0.056 C 
ATOM      9  N   UNL     1       4.955  -2.891  -9.509  0.00  0.00    -0.289 N 
ATOM     10  C   UNL     1       6.388  -3.092  -9.331  0.00  0.00    +0.113 C 
ATOM     11  C   UNL     1       4.308  -2.764 -10.756  0.00  0.00    +0.283 C 
ATOM     12  O   UNL     1       3.114  -3.049 -10.868  0.00  0.00    -0.267 OA
ENDROOT
BRANCH  11  13
ATOM     13  C   UNL     1       5.051  -2.078 -11.841  0.00  0.00    +0.194 A 
ATOM     14  O   UNL     1       6.029  -1.219 -11.362  0.00  0.00    -0.450 OA
ATOM     15  C   UNL     1       4.574  -1.448 -13.002  0.00  0.00    +0.008 A 
ATOM     16  C   UNL     1       5.572   0.017 -11.673  0.00  0.00    +0.136 A 
ATOM     17  C   UNL     1       4.584  -0.074 -12.635  0.00  0.00    +0.024 A 
ATOM     18  C   UNL     1       4.228  -1.945 -14.356  0.00  0.00    +0.048 C 
ATOM     19  C   UNL     1       6.017   1.192 -11.084  0.00  0.00    +0.047 A 
ATOM     20  C   UNL     1       3.947   1.102 -13.062  0.00  0.00    +0.012 A 
ATOM     21  C   UNL     1       5.335   2.341 -11.483  0.00  0.00    +0.004 A 
ATOM     22  C   UNL     1       4.319   2.305 -12.448  0.00  0.00    +0.001 A 
ENDBRANCH  11  13
BRANCH   1  24
ATOM     23  O   UNL     1       4.295  -0.133  -2.885  0.00  0.00    -0.269 OA
ATOM     24  C   UNL     1       3.824  -0.839  -3.753  0.00  0.00    +0.263 C 
ATOM     25  N   UNL     1       2.577  -1.423  -3.654  0.00  0.00    -0.303 N 
ATOM     26  H   UNL     1       2.238  -1.969  -4.399  0.00  0.00    +0.150 HD
BRANCH  25  27
ATOM     27  C   UNL     1       1.751  -1.244  -2.463  0.00  0.00    +0.104 C 
ATOM     28  C   UNL     1       0.844  -2.438  -2.205  0.00  0.00    -0.024 A 
ATOM     29  C   UNL     1       0.979   0.085  -2.529  0.00  0.00    +0.027 C 
ATOM     30  C   UNL     1      -0.473  -2.270  -1.722  0.00  0.00    -0.042 A 
ATOM     31  C   UNL     1       1.349  -3.742  -2.347  0.00  0.00    +0.006 A 
ATOM     32  C   UNL     1      -0.012   0.192  -1.374  0.00  0.00    +0.007 C 
ATOM     33  C   UNL     1      -1.274  -3.397  -1.481  0.00  0.00    +0.004 A 
ATOM     34  C   UNL     1      -1.069  -0.908  -1.482  0.00  0.00    +0.035 C 
ATOM     35  C   UNL     1       0.552  -4.856  -2.086  0.00  0.00    +0.000 A 
ATOM     36  C   UNL     1      -0.762  -4.683  -1.664  0.00  0.00    +0.000 A 
ENDBRANCH  25  27
ENDBRANCH   1  24
TORSDOF 3
