REMARK  Name = CTX-1020669
REMARK  6 active torsions:
REMARK  status: ('A' for Active; 'I' for Inactive)
REMARK    1  A    between atoms: C_3  and  C_6
REMARK    2  A    between atoms: C_21  and  C_22
REMARK    3  A    between atoms: N_24  and  C_25
REMARK    4  A    between atoms: C_25  and  C_26
REMARK    5  A    between atoms: C_31  and  N_32
REMARK    6  A    between atoms: N_37  and  C_38
REMARK                            x       y       z     vdW  Elec       q    Type
REMARK                         _______ _______ _______ _____ _____    ______ ____
ROOT
ATOM      1  C   UNL     1       9.006  -9.917   1.071  0.00  0.00    +0.255 C 
ATOM      2  O   UNL     1       9.510 -10.055  -0.042  0.00  0.00    -0.269 OA
ATOM      3  N   UNL     1       7.643  -9.443   1.202  0.00  0.00    -0.292 N 
ATOM      4  C   UNL     1       6.880  -8.541   0.170  0.00  0.00    +0.144 C 
ATOM      5  C   UNL     1       6.846 -10.496   1.798  0.00  0.00    +0.113 C 
ATOM      6  C   UNL     1       5.314  -8.617   0.352  0.00  0.00    -0.019 A 
ATOM      7  C   UNL     1       5.551 -10.038   2.419  0.00  0.00    +0.062 C 
ATOM      8  C   UNL     1       4.814  -9.169   1.512  0.00  0.00    -0.003 A 
ATOM      9  C   UNL     1       4.127  -8.374  -0.508  0.00  0.00    +0.026 A 
ATOM     10  S   UNL     1       3.170  -8.890   1.776  0.00  0.00    -0.088 S 
ATOM     11  C   UNL     1       2.987  -8.951   0.074  0.00  0.00    +0.074 A 
ENDROOT
BRANCH   1  14
ATOM     12 CL   UNL     1      11.129 -12.596   1.562  0.00  0.00    -0.082 Cl
ATOM     13  C   UNL     1      10.631 -11.357   2.649  0.00  0.00    +0.068 A 
ATOM     14  C   UNL     1       9.723 -10.335   2.356  0.00  0.00    +0.093 A 
ATOM     15  C   UNL     1      11.165 -11.337   4.027  0.00  0.00    +0.008 A 
ATOM     16  S   UNL     1       9.452  -9.415   3.800  0.00  0.00    -0.082 S 
ATOM     17  C   UNL     1      10.555 -10.326   4.765  0.00  0.00    +0.021 A 
ATOM     18  C   UNL     1      12.151 -12.130   4.729  0.00  0.00    +0.010 A 
ATOM     19  C   UNL     1      10.857 -10.112   6.136  0.00  0.00    +0.016 A 
ATOM     20  C   UNL     1      12.494 -11.905   6.081  0.00  0.00    +0.001 A 
ATOM     21  C   UNL     1      11.850 -10.887   6.780  0.00  0.00    +0.001 A 
ENDBRANCH   1  14
BRANCH  11  22
ATOM     22  C   UNL     1       1.783  -9.628  -0.394  0.00  0.00    +0.251 C 
ATOM     23  O   UNL     1       0.765  -9.052  -0.779  0.00  0.00    -0.270 OA
ATOM     24  N   UNL     1       1.787 -11.020  -0.281  0.00  0.00    -0.307 N 
ATOM     25  H   UNL     1       0.944 -11.487  -0.481  0.00  0.00    +0.149 HD
BRANCH  24  26
ATOM     26  C   UNL     1       2.918 -11.843   0.106  0.00  0.00    +0.139 C 
BRANCH  26  27
ATOM     27  C   UNL     1       2.862 -13.225  -0.476  0.00  0.00    -0.030 A 
ATOM     28  C   UNL     1       2.980 -13.387  -1.867  0.00  0.00    +0.007 A 
ATOM     29  C   UNL     1       2.762 -14.368   0.318  0.00  0.00    +0.007 A 
ATOM     30  C   UNL     1       2.990 -14.657  -2.437  0.00  0.00    +0.023 A 
ATOM     31  C   UNL     1       2.753 -15.645  -0.281  0.00  0.00    +0.023 A 
ATOM     32  C   UNL     1       2.839 -15.829  -1.667  0.00  0.00    +0.030 A 
BRANCH  32  33
ATOM     33  N   UNL     1       2.755 -17.073  -2.268  0.00  0.00    -0.333 N 
ATOM     34  C   UNL     1       3.565 -17.424  -3.446  0.00  0.00    +0.086 C 
ATOM     35  C   UNL     1       2.055 -18.175  -1.651  0.00  0.00    +0.086 C 
ATOM     36  C   UNL     1       2.704 -18.203  -4.465  0.00  0.00    -0.060 C 
ATOM     37  C   UNL     1       1.243 -18.957  -2.707  0.00  0.00    -0.060 C 
ATOM     38  N   UNL     1       2.073 -19.396  -3.851  0.00  0.00    +0.380 N 
ATOM     39  C   UNL     1       1.270 -20.122  -4.829  0.00  0.00    -0.096 C 
ATOM     40  H   UNL     1       2.797 -20.034  -3.522  0.00  0.00    -0.082 HD
ENDBRANCH  32  33
ENDBRANCH  26  27
ENDBRANCH  24  26
ENDBRANCH  11  22
TORSDOF 5
