MODEL 1
REMARK VINA RESULT:   -11.550      0.000      0.000
REMARK INTER + INTRA:         -15.573
REMARK INTER:                 -14.926
REMARK INTRA:                  -0.647
REMARK UNBOUND:                -0.647
REMARK  Name = CTX-1020845
REMARK  6 active torsions:
REMARK  status: ('A' for Active; 'I' for Inactive)
REMARK    1  A    between atoms: C_3  and  C_6
REMARK    2  A    between atoms: C_21  and  C_22
REMARK    3  A    between atoms: N_24  and  C_25
REMARK    4  A    between atoms: C_25  and  C_26
REMARK    5  A    between atoms: C_31  and  N_32
REMARK    6  A    between atoms: N_37  and  C_38
REMARK                            x       y       z     vdW  Elec       q    Type
REMARK                         _______ _______ _______ _____ _____    ______ ____
ROOT
ATOM      1  C   UNL     1      25.990   2.141 -24.373  0.00  0.00    +0.255 C 
ATOM      2  O   UNL     1      26.504   2.883 -23.537  0.00  0.00    -0.269 OA
ATOM      3  N   UNL     1      25.310   0.950 -23.941  0.00  0.00    -0.292 N 
ATOM      4  C   UNL     1      25.699   0.196 -22.649  0.00  0.00    +0.144 C 
ATOM      5  C   UNL     1      23.882   1.106 -24.174  0.00  0.00    +0.113 C 
ATOM      6  C   UNL     1      24.501  -0.579 -22.027  0.00  0.00    -0.019 A 
ATOM      7  C   UNL     1      23.089  -0.184 -24.083  0.00  0.00    +0.062 C 
ATOM      8  C   UNL     1      23.392  -0.843 -22.802  0.00  0.00    -0.003 A 
ATOM      9  C   UNL     1      24.181  -1.022 -20.655  0.00  0.00    +0.026 A 
ATOM     10  S   UNL     1      22.269  -1.893 -22.088  0.00  0.00    -0.088 S 
ATOM     11  C   UNL     1      22.820  -1.342 -20.562  0.00  0.00    +0.074 A 
ENDROOT
BRANCH   1  14
ATOM     12 CL   UNL     1      27.097   0.189 -26.916  0.00  0.00    -0.082 Cl
ATOM     13  C   UNL     1      26.324   1.728 -26.960  0.00  0.00    +0.069 A 
ATOM     14  C   UNL     1      25.959   2.477 -25.838  0.00  0.00    +0.094 A 
ATOM     15  C   UNL     1      26.028   2.370 -28.241  0.00  0.00    +0.026 A 
ATOM     16  S   UNL     1      25.345   3.999 -26.355  0.00  0.00    -0.082 S 
ATOM     17  C   UNL     1      25.486   3.645 -28.031  0.00  0.00    +0.024 A 
ATOM     18  C   UNL     1      26.191   1.950 -29.567  0.00  0.00    +0.121 A 
ATOM     19  C   UNL     1      25.120   4.480 -29.127  0.00  0.00    +0.035 A 
ATOM     20  N   UNL     1      25.838   2.748 -30.621  0.00  0.00    -0.263 NA
ATOM     21  C   UNL     1      25.308   3.961 -30.395  0.00  0.00    +0.112 A 
ENDBRANCH   1  14
BRANCH  11  22
ATOM     22  C   UNL     1      21.799  -1.144 -19.542  0.00  0.00    +0.251 C 
ATOM     23  O   UNL     1      21.101  -2.033 -19.061  0.00  0.00    -0.270 OA
ATOM     24  N   UNL     1      21.590   0.179 -19.156  0.00  0.00    -0.307 N 
ATOM     25  H   UNL     1      20.900   0.347 -18.476  0.00  0.00    +0.149 HD
BRANCH  24  26
ATOM     26  C   UNL     1      22.311   1.338 -19.677  0.00  0.00    +0.139 C 
BRANCH  26  27
ATOM     27  C   UNL     1      23.507   1.710 -18.863  0.00  0.00    -0.030 A 
ATOM     28  C   UNL     1      24.749   1.860 -19.485  0.00  0.00    +0.007 A 
ATOM     29  C   UNL     1      23.412   1.979 -17.498  0.00  0.00    +0.007 A 
ATOM     30  C   UNL     1      25.879   2.233 -18.750  0.00  0.00    +0.023 A 
ATOM     31  C   UNL     1      24.551   2.351 -16.776  0.00  0.00    +0.023 A 
ATOM     32  C   UNL     1      25.821   2.447 -17.369  0.00  0.00    +0.030 A 
BRANCH  32  33
ATOM     33  N   UNL     1      26.967   2.654 -16.626  0.00  0.00    -0.333 N 
ATOM     34  C   UNL     1      27.535   3.996 -16.412  0.00  0.00    +0.086 C 
ATOM     35  C   UNL     1      27.465   1.628 -15.699  0.00  0.00    +0.086 C 
ATOM     36  C   UNL     1      29.082   3.920 -16.387  0.00  0.00    -0.060 C 
ATOM     37  C   UNL     1      29.010   1.623 -15.688  0.00  0.00    -0.060 C 
ATOM     38  N   UNL     1      29.577   2.954 -15.381  0.00  0.00    +0.380 N 
ATOM     39  C   UNL     1      31.036   2.903 -15.375  0.00  0.00    -0.096 C 
ATOM     40  H   UNL     1      29.282   3.250 -14.451  0.00  0.00    -0.082 HD
ENDBRANCH  32  33
ENDBRANCH  26  27
ENDBRANCH  24  26
ENDBRANCH  11  22
TORSDOF 5
ENDMDL
MODEL 2
REMARK VINA RESULT:   -10.394      2.961      4.592
REMARK INTER + INTRA:         -14.079
REMARK INTER:                 -13.141
REMARK INTRA:                  -0.938
REMARK UNBOUND:                -0.647
REMARK  Name = CTX-1020845
REMARK  6 active torsions:
REMARK  status: ('A' for Active; 'I' for Inactive)
REMARK    1  A    between atoms: C_3  and  C_6
REMARK    2  A    between atoms: C_21  and  C_22
REMARK    3  A    between atoms: N_24  and  C_25
REMARK    4  A    between atoms: C_25  and  C_26
REMARK    5  A    between atoms: C_31  and  N_32
REMARK    6  A    between atoms: N_37  and  C_38
REMARK                            x       y       z     vdW  Elec       q    Type
REMARK                         _______ _______ _______ _____ _____    ______ ____
ROOT
ATOM      1  C   UNL     1      23.923   0.096 -20.376  0.00  0.00    +0.255 C 
ATOM      2  O   UNL     1      24.592  -0.539 -19.561  0.00  0.00    -0.269 OA
ATOM      3  N   UNL     1      22.574   0.468 -20.050  0.00  0.00    -0.292 N 
ATOM      4  C   UNL     1      21.692  -0.367 -19.093  0.00  0.00    +0.144 C 
ATOM      5  C   UNL     1      22.508   1.911 -19.870  0.00  0.00    +0.113 C 
ATOM      6  C   UNL     1      20.619   0.495 -18.366  0.00  0.00    -0.019 A 
ATOM      7  C   UNL     1      21.100   2.476 -19.857  0.00  0.00    +0.062 C 
ATOM      8  C   UNL     1      20.297   1.738 -18.869  0.00  0.00    -0.003 A 
ATOM      9  C   UNL     1      19.897   0.350 -17.086  0.00  0.00    +0.026 A 
ATOM     10  S   UNL     1      18.955   2.468 -18.132  0.00  0.00    -0.088 S 
ATOM     11  C   UNL     1      19.327   1.575 -16.718  0.00  0.00    +0.074 A 
ENDROOT
BRANCH   1  14
ATOM     12 CL   UNL     1      23.070  -0.961 -23.483  0.00  0.00    -0.082 Cl
ATOM     13  C   UNL     1      24.171   0.272 -22.999  0.00  0.00    +0.069 A 
ATOM     14  C   UNL     1      24.494   0.588 -21.677  0.00  0.00    +0.094 A 
ATOM     15  C   UNL     1      24.882   1.065 -24.003  0.00  0.00    +0.026 A 
ATOM     16  S   UNL     1      25.732   1.783 -21.672  0.00  0.00    -0.082 S 
ATOM     17  C   UNL     1      25.786   1.938 -23.383  0.00  0.00    +0.024 A 
ATOM     18  C   UNL     1      24.818   1.092 -25.402  0.00  0.00    +0.121 A 
ATOM     19  C   UNL     1      26.608   2.814 -24.149  0.00  0.00    +0.035 A 
ATOM     20  N   UNL     1      25.604   1.935 -26.140  0.00  0.00    -0.263 NA
ATOM     21  C   UNL     1      26.454   2.772 -25.522  0.00  0.00    +0.112 A 
ENDBRANCH   1  14
BRANCH  11  22
ATOM     22  C   UNL     1      19.160   2.277 -15.452  0.00  0.00    +0.251 C 
ATOM     23  O   UNL     1      18.324   3.150 -15.234  0.00  0.00    -0.270 OA
ATOM     24  N   UNL     1      20.081   1.943 -14.460  0.00  0.00    -0.307 N 
ATOM     25  H   UNL     1      20.001   2.407 -13.596  0.00  0.00    +0.149 HD
BRANCH  24  26
ATOM     26  C   UNL     1      21.155   0.962 -14.595  0.00  0.00    +0.139 C 
BRANCH  26  27
ATOM     27  C   UNL     1      22.497   1.577 -14.824  0.00  0.00    -0.030 A 
ATOM     28  C   UNL     1      22.962   1.760 -16.128  0.00  0.00    +0.007 A 
ATOM     29  C   UNL     1      23.282   2.039 -13.769  0.00  0.00    +0.007 A 
ATOM     30  C   UNL     1      24.203   2.358 -16.370  0.00  0.00    +0.023 A 
ATOM     31  C   UNL     1      24.522   2.635 -14.027  0.00  0.00    +0.023 A 
ATOM     32  C   UNL     1      25.036   2.772 -15.327  0.00  0.00    +0.030 A 
BRANCH  32  33
ATOM     33  N   UNL     1      26.324   3.209 -15.567  0.00  0.00    -0.333 N 
ATOM     34  C   UNL     1      26.653   4.634 -15.742  0.00  0.00    +0.086 C 
ATOM     35  C   UNL     1      27.482   2.349 -15.284  0.00  0.00    +0.086 C 
ATOM     36  C   UNL     1      27.781   4.794 -16.791  0.00  0.00    -0.060 C 
ATOM     37  C   UNL     1      28.588   2.578 -16.338  0.00  0.00    -0.060 C 
ATOM     38  N   UNL     1      28.981   3.999 -16.446  0.00  0.00    +0.380 N 
ATOM     39  C   UNL     1      30.030   4.169 -17.447  0.00  0.00    -0.096 C 
ATOM     40  H   UNL     1      29.359   4.322 -15.556  0.00  0.00    -0.082 HD
ENDBRANCH  32  33
ENDBRANCH  26  27
ENDBRANCH  24  26
ENDBRANCH  11  22
TORSDOF 5
ENDMDL
MODEL 3
REMARK VINA RESULT:   -10.335      5.629      9.632
REMARK INTER + INTRA:         -14.003
REMARK INTER:                 -14.764
REMARK INTRA:                   0.761
REMARK UNBOUND:                -0.647
REMARK  Name = CTX-1020845
REMARK  6 active torsions:
REMARK  status: ('A' for Active; 'I' for Inactive)
REMARK    1  A    between atoms: C_3  and  C_6
REMARK    2  A    between atoms: C_21  and  C_22
REMARK    3  A    between atoms: N_24  and  C_25
REMARK    4  A    between atoms: C_25  and  C_26
REMARK    5  A    between atoms: C_31  and  N_32
REMARK    6  A    between atoms: N_37  and  C_38
REMARK                            x       y       z     vdW  Elec       q    Type
REMARK                         _______ _______ _______ _____ _____    ______ ____
ROOT
ATOM      1  C   UNL     1      24.572   0.576 -20.127  0.00  0.00    +0.255 C 
ATOM      2  O   UNL     1      25.019   0.778 -21.256  0.00  0.00    -0.269 OA
ATOM      3  N   UNL     1      25.304   1.041 -18.981  0.00  0.00    -0.292 N 
ATOM      4  C   UNL     1      26.843   1.187 -18.984  0.00  0.00    +0.144 C 
ATOM      5  C   UNL     1      24.568   2.130 -18.357  0.00  0.00    +0.113 C 
ATOM      6  C   UNL     1      27.340   2.282 -17.996  0.00  0.00    -0.019 A 
ATOM      7  C   UNL     1      25.045   2.488 -16.961  0.00  0.00    +0.062 C 
ATOM      8  C   UNL     1      26.497   2.723 -16.997  0.00  0.00    -0.003 A 
ATOM      9  C   UNL     1      28.547   3.131 -17.945  0.00  0.00    +0.026 A 
ATOM     10  S   UNL     1      27.234   3.734 -15.852  0.00  0.00    -0.088 S 
ATOM     11  C   UNL     1      28.337   4.208 -17.074  0.00  0.00    +0.074 A 
ENDROOT
BRANCH   1  14
ATOM     12 CL   UNL     1      23.449  -2.321 -21.487  0.00  0.00    -0.082 Cl
ATOM     13  C   UNL     1      22.697  -1.272 -20.347  0.00  0.00    +0.069 A 
ATOM     14  C   UNL     1      23.230  -0.061 -19.895  0.00  0.00    +0.094 A 
ATOM     15  C   UNL     1      21.382  -1.599 -19.795  0.00  0.00    +0.026 A 
ATOM     16  S   UNL     1      22.080   0.711 -18.874  0.00  0.00    -0.082 S 
ATOM     17  C   UNL     1      20.932  -0.565 -18.965  0.00  0.00    +0.024 A 
ATOM     18  C   UNL     1      20.542  -2.710 -19.953  0.00  0.00    +0.121 A 
ATOM     19  C   UNL     1      19.667  -0.641 -18.312  0.00  0.00    +0.035 A 
ATOM     20  N   UNL     1      19.330  -2.787 -19.325  0.00  0.00    -0.263 NA
ATOM     21  C   UNL     1      18.925  -1.788 -18.524  0.00  0.00    +0.112 A 
ENDBRANCH   1  14
BRANCH  11  22
ATOM     22  C   UNL     1      28.706   5.617 -17.096  0.00  0.00    +0.251 C 
ATOM     23  O   UNL     1      28.229   6.483 -16.367  0.00  0.00    -0.270 OA
ATOM     24  N   UNL     1      29.628   5.976 -18.079  0.00  0.00    -0.307 N 
ATOM     25  H   UNL     1      29.889   6.924 -18.127  0.00  0.00    +0.149 HD
BRANCH  24  26
ATOM     26  C   UNL     1      30.239   5.065 -19.043  0.00  0.00    +0.139 C 
BRANCH  26  27
ATOM     27  C   UNL     1      30.821   5.758 -20.231  0.00  0.00    -0.030 A 
ATOM     28  C   UNL     1      30.169   5.687 -21.464  0.00  0.00    +0.007 A 
ATOM     29  C   UNL     1      31.973   6.537 -20.134  0.00  0.00    +0.007 A 
ATOM     30  C   UNL     1      30.679   6.349 -22.585  0.00  0.00    +0.023 A 
ATOM     31  C   UNL     1      32.472   7.194 -21.264  0.00  0.00    +0.023 A 
ATOM     32  C   UNL     1      31.867   7.084 -22.528  0.00  0.00    +0.030 A 
BRANCH  32  33
ATOM     33  N   UNL     1      32.449   7.597 -23.670  0.00  0.00    -0.333 N 
ATOM     34  C   UNL     1      31.702   7.768 -24.928  0.00  0.00    +0.086 C 
ATOM     35  C   UNL     1      33.709   8.353 -23.605  0.00  0.00    +0.086 C 
ATOM     36  C   UNL     1      32.627   7.483 -26.137  0.00  0.00    -0.060 C 
ATOM     37  C   UNL     1      34.573   8.059 -24.852  0.00  0.00    -0.060 C 
ATOM     38  N   UNL     1      33.849   8.320 -26.115  0.00  0.00    +0.380 N 
ATOM     39  C   UNL     1      34.701   8.036 -27.265  0.00  0.00    -0.096 C 
ATOM     40  H   UNL     1      33.588   9.304 -26.168  0.00  0.00    -0.082 HD
ENDBRANCH  32  33
ENDBRANCH  26  27
ENDBRANCH  24  26
ENDBRANCH  11  22
TORSDOF 5
ENDMDL
MODEL 4
REMARK VINA RESULT:    -9.549      6.558      9.678
REMARK INTER + INTRA:         -12.987
REMARK INTER:                 -12.673
REMARK INTRA:                  -0.315
REMARK UNBOUND:                -0.647
REMARK  Name = CTX-1020845
REMARK  6 active torsions:
REMARK  status: ('A' for Active; 'I' for Inactive)
REMARK    1  A    between atoms: C_3  and  C_6
REMARK    2  A    between atoms: C_21  and  C_22
REMARK    3  A    between atoms: N_24  and  C_25
REMARK    4  A    between atoms: C_25  and  C_26
REMARK    5  A    between atoms: C_31  and  N_32
REMARK    6  A    between atoms: N_37  and  C_38
REMARK                            x       y       z     vdW  Elec       q    Type
REMARK                         _______ _______ _______ _____ _____    ______ ____
ROOT
ATOM      1  C   UNL     1      24.718   2.191 -17.543  0.00  0.00    +0.255 C 
ATOM      2  O   UNL     1      24.450   1.384 -18.432  0.00  0.00    -0.269 OA
ATOM      3  N   UNL     1      23.653   2.817 -16.807  0.00  0.00    -0.292 N 
ATOM      4  C   UNL     1      22.257   3.065 -17.421  0.00  0.00    +0.144 C 
ATOM      5  C   UNL     1      23.661   2.317 -15.441  0.00  0.00    +0.113 C 
ATOM      6  C   UNL     1      21.129   3.091 -16.348  0.00  0.00    -0.019 A 
ATOM      7  C   UNL     1      22.820   3.128 -14.473  0.00  0.00    +0.062 C 
ATOM      8  C   UNL     1      21.463   3.273 -15.023  0.00  0.00    -0.003 A 
ATOM      9  C   UNL     1      19.679   2.812 -16.392  0.00  0.00    +0.026 A 
ATOM     10  S   UNL     1      20.139   3.520 -13.993  0.00  0.00    -0.088 S 
ATOM     11  C   UNL     1      19.194   2.609 -15.094  0.00  0.00    +0.074 A 
ENDROOT
BRANCH   1  14
ATOM     12 CL   UNL     1      27.224  -0.063 -17.166  0.00  0.00    -0.082 Cl
ATOM     13  C   UNL     1      27.246   1.652 -17.001  0.00  0.00    +0.069 A 
ATOM     14  C   UNL     1      26.132   2.486 -17.122  0.00  0.00    +0.094 A 
ATOM     15  C   UNL     1      28.492   2.348 -16.677  0.00  0.00    +0.026 A 
ATOM     16  S   UNL     1      26.595   4.100 -16.746  0.00  0.00    -0.082 S 
ATOM     17  C   UNL     1      28.253   3.717 -16.504  0.00  0.00    +0.024 A 
ATOM     18  C   UNL     1      29.809   1.899 -16.514  0.00  0.00    +0.121 A 
ATOM     19  C   UNL     1      29.310   4.613 -16.171  0.00  0.00    +0.035 A 
ATOM     20  N   UNL     1      30.826   2.757 -16.198  0.00  0.00    -0.263 NA
ATOM     21  C   UNL     1      30.574   4.068 -16.050  0.00  0.00    +0.112 A 
ENDBRANCH   1  14
BRANCH  11  22
ATOM     22  C   UNL     1      18.220   1.699 -14.507  0.00  0.00    +0.251 C 
ATOM     23  O   UNL     1      18.068   1.508 -13.303  0.00  0.00    -0.270 OA
ATOM     24  N   UNL     1      17.467   0.962 -15.421  0.00  0.00    -0.307 N 
ATOM     25  H   UNL     1      16.807   0.329 -15.055  0.00  0.00    +0.149 HD
BRANCH  24  26
ATOM     26  C   UNL     1      17.574   1.049 -16.874  0.00  0.00    +0.139 C 
BRANCH  26  27
ATOM     27  C   UNL     1      18.385  -0.051 -17.479  0.00  0.00    -0.030 A 
ATOM     28  C   UNL     1      19.067   0.170 -18.678  0.00  0.00    +0.007 A 
ATOM     29  C   UNL     1      18.539  -1.282 -16.845  0.00  0.00    +0.007 A 
ATOM     30  C   UNL     1      19.855  -0.835 -19.249  0.00  0.00    +0.023 A 
ATOM     31  C   UNL     1      19.329  -2.278 -17.429  0.00  0.00    +0.023 A 
ATOM     32  C   UNL     1      19.973  -2.100 -18.665  0.00  0.00    +0.030 A 
BRANCH  32  33
ATOM     33  N   UNL     1      20.616  -3.134 -19.316  0.00  0.00    -0.333 N 
ATOM     34  C   UNL     1      21.027  -3.043 -20.728  0.00  0.00    +0.086 C 
ATOM     35  C   UNL     1      21.268  -4.215 -18.563  0.00  0.00    +0.086 C 
ATOM     36  C   UNL     1      20.871  -4.422 -21.416  0.00  0.00    -0.060 C 
ATOM     37  C   UNL     1      21.114  -5.557 -19.313  0.00  0.00    -0.060 C 
ATOM     38  N   UNL     1      21.612  -5.488 -20.703  0.00  0.00    +0.380 N 
ATOM     39  C   UNL     1      21.453  -6.775 -21.372  0.00  0.00    -0.096 C 
ATOM     40  H   UNL     1      22.608  -5.268 -20.704  0.00  0.00    -0.082 HD
ENDBRANCH  32  33
ENDBRANCH  26  27
ENDBRANCH  24  26
ENDBRANCH  11  22
TORSDOF 5
ENDMDL
MODEL 5
REMARK VINA RESULT:    -9.382      4.223      6.648
REMARK INTER + INTRA:         -12.772
REMARK INTER:                 -12.566
REMARK INTRA:                  -0.206
REMARK UNBOUND:                -0.647
REMARK  Name = CTX-1020845
REMARK  6 active torsions:
REMARK  status: ('A' for Active; 'I' for Inactive)
REMARK    1  A    between atoms: C_3  and  C_6
REMARK    2  A    between atoms: C_21  and  C_22
REMARK    3  A    between atoms: N_24  and  C_25
REMARK    4  A    between atoms: C_25  and  C_26
REMARK    5  A    between atoms: C_31  and  N_32
REMARK    6  A    between atoms: N_37  and  C_38
REMARK                            x       y       z     vdW  Elec       q    Type
REMARK                         _______ _______ _______ _____ _____    ______ ____
ROOT
ATOM      1  C   UNL     1      26.427   1.549 -23.724  0.00  0.00    +0.255 C 
ATOM      2  O   UNL     1      26.563   0.985 -24.809  0.00  0.00    -0.269 OA
ATOM      3  N   UNL     1      25.338   1.178 -22.862  0.00  0.00    -0.292 N 
ATOM      4  C   UNL     1      24.000   0.629 -23.407  0.00  0.00    +0.144 C 
ATOM      5  C   UNL     1      25.869   0.496 -21.691  0.00  0.00    +0.113 C 
ATOM      6  C   UNL     1      23.281  -0.305 -22.391  0.00  0.00    -0.019 A 
ATOM      7  C   UNL     1      24.880   0.350 -20.550  0.00  0.00    +0.062 C 
ATOM      8  C   UNL     1      23.646  -0.266 -21.062  0.00  0.00    -0.003 A 
ATOM      9  C   UNL     1      22.313  -1.412 -22.539  0.00  0.00    +0.026 A 
ATOM     10  S   UNL     1      22.632  -1.149 -20.029  0.00  0.00    -0.088 S 
ATOM     11  C   UNL     1      22.268  -2.166 -21.359  0.00  0.00    +0.074 A 
ENDROOT
BRANCH   1  14
ATOM     12 CL   UNL     1      26.804   4.741 -24.808  0.00  0.00    -0.082 Cl
ATOM     13  C   UNL     1      27.611   3.903 -23.538  0.00  0.00    +0.069 A 
ATOM     14  C   UNL     1      27.418   2.558 -23.212  0.00  0.00    +0.094 A 
ATOM     15  C   UNL     1      28.614   4.587 -22.721  0.00  0.00    +0.026 A 
ATOM     16  S   UNL     1      28.528   2.116 -21.974  0.00  0.00    -0.082 S 
ATOM     17  C   UNL     1      29.199   3.691 -21.817  0.00  0.00    +0.024 A 
ATOM     18  C   UNL     1      29.065   5.913 -22.695  0.00  0.00    +0.121 A 
ATOM     19  C   UNL     1      30.216   4.114 -20.912  0.00  0.00    +0.035 A 
ATOM     20  N   UNL     1      30.038   6.323 -21.825  0.00  0.00    -0.263 NA
ATOM     21  C   UNL     1      30.575   5.448 -20.959  0.00  0.00    +0.112 A 
ENDBRANCH   1  14
BRANCH  11  22
ATOM     22  C   UNL     1      22.157  -3.590 -21.070  0.00  0.00    +0.251 C 
ATOM     23  O   UNL     1      23.090  -4.388 -21.084  0.00  0.00    -0.270 OA
ATOM     24  N   UNL     1      20.862  -4.048 -20.825  0.00  0.00    -0.307 N 
ATOM     25  H   UNL     1      20.752  -5.007 -20.637  0.00  0.00    +0.149 HD
BRANCH  24  26
ATOM     26  C   UNL     1      19.657  -3.224 -20.823  0.00  0.00    +0.139 C 
BRANCH  26  27
ATOM     27  C   UNL     1      19.500  -2.401 -19.586  0.00  0.00    -0.030 A 
ATOM     28  C   UNL     1      18.910  -1.137 -19.664  0.00  0.00    +0.007 A 
ATOM     29  C   UNL     1      19.867  -2.885 -18.331  0.00  0.00    +0.007 A 
ATOM     30  C   UNL     1      18.726  -0.359 -18.516  0.00  0.00    +0.023 A 
ATOM     31  C   UNL     1      19.679  -2.095 -17.192  0.00  0.00    +0.023 A 
ATOM     32  C   UNL     1      19.145  -0.797 -17.256  0.00  0.00    +0.030 A 
BRANCH  32  33
ATOM     33  N   UNL     1      19.111   0.039 -16.158  0.00  0.00    -0.333 N 
ATOM     34  C   UNL     1      17.913   0.181 -15.312  0.00  0.00    +0.086 C 
ATOM     35  C   UNL     1      20.351   0.535 -15.542  0.00  0.00    +0.086 C 
ATOM     36  C   UNL     1      17.785   1.642 -14.813  0.00  0.00    -0.060 C 
ATOM     37  C   UNL     1      20.153   1.979 -15.031  0.00  0.00    -0.060 C 
ATOM     38  N   UNL     1      19.004   2.100 -14.108  0.00  0.00    +0.380 N 
ATOM     39  C   UNL     1      18.858   3.476 -13.646  0.00  0.00    -0.096 C 
ATOM     40  H   UNL     1      19.159   1.520 -13.284  0.00  0.00    -0.082 HD
ENDBRANCH  32  33
ENDBRANCH  26  27
ENDBRANCH  24  26
ENDBRANCH  11  22
TORSDOF 5
ENDMDL
