REMARK  Name = CTX-1020582
REMARK  7 active torsions:
REMARK  status: ('A' for Active; 'I' for Inactive)
REMARK    1  A    between atoms: C_2  and  C_5
REMARK    2  A    between atoms: C_4  and  C_8
REMARK    3  A    between atoms: C_20  and  C_22
REMARK    4  A    between atoms: N_25  and  C_26
REMARK    5  A    between atoms: C_26  and  C_27
REMARK    6  A    between atoms: C_32  and  N_33
REMARK    7  A    between atoms: N_38  and  C_39
REMARK                            x       y       z     vdW  Elec       q    Type
REMARK                         _______ _______ _______ _____ _____    ______ ____
ROOT
ATOM      1  C   UNL     1       4.652  -0.309   0.078  0.00  0.00    +0.254 C 
ATOM      2  O   UNL     1       4.978  -1.510   0.077  0.00  0.00    -0.269 OA
ATOM      3  N   UNL     1       5.847   0.624   0.153  0.00  0.00    -0.291 N 
ATOM      4  C   UNL     1       7.362   0.300   0.231  0.00  0.00    +0.163 C 
ATOM      5  C   UNL     1       5.547   1.958  -0.141  0.00  0.00    +0.113 C 
ATOM      6  C   UNL     1       8.434   1.556   0.173  0.00  0.00    +0.063 A 
ATOM      7  C   UNL     1       6.454   3.129  -0.116  0.00  0.00    +0.056 C 
ATOM      8  N   UNL     1       9.799   1.433   0.325  0.00  0.00    -0.245 NA
ATOM      9  C   UNL     1       7.893   2.827  -0.007  0.00  0.00    -0.023 A 
ATOM     10  C   UNL     1      10.617   2.601   0.359  0.00  0.00    +0.126 A 
ATOM     11  C   UNL     1       8.724   3.964  -0.006  0.00  0.00    +0.008 A 
ATOM     12  C   UNL     1      10.040   3.870   0.229  0.00  0.00    +0.033 A 
ENDROOT
BRANCH   1  14
ATOM     13  S   UNL     1       2.151  -1.243  -0.964  0.00  0.00    -0.082 S 
ATOM     14  C   UNL     1       3.025   0.037  -0.088  0.00  0.00    +0.078 A 
ATOM     15  C   UNL     1       0.555  -0.575  -0.862  0.00  0.00    +0.038 A 
ATOM     16  C   UNL     1       1.992   0.983   0.287  0.00  0.00    -0.023 A 
ATOM     17  C   UNL     1       0.536   0.626  -0.166  0.00  0.00    -0.004 A 
ATOM     18  C   UNL     1      -0.643  -1.118  -1.394  0.00  0.00    +0.126 A 
ATOM     19  C   UNL     1       2.118   2.256   1.062  0.00  0.00    +0.046 C 
ATOM     20  C   UNL     1      -0.797   1.246  -0.038  0.00  0.00    +0.029 A 
ATOM     21  N   UNL     1      -1.859  -0.498  -1.250  0.00  0.00    -0.262 NA
ATOM     22  C   UNL     1      -1.947   0.659  -0.589  0.00  0.00    +0.111 A 
ENDBRANCH   1  14
BRANCH  10  23
ATOM     23  C   UNL     1      12.118   2.658   0.464  0.00  0.00    +0.263 C 
ATOM     24  O   UNL     1      12.720   3.773   0.535  0.00  0.00    -0.269 OA
ATOM     25  N   UNL     1      12.896   1.518   0.453  0.00  0.00    -0.306 N 
ATOM     26  H   UNL     1      12.424   0.654   0.456  0.00  0.00    +0.149 HD
BRANCH  25  27
ATOM     27  C   UNL     1      14.339   1.476   0.436  0.00  0.00    +0.140 C 
BRANCH  27  28
ATOM     28  C   UNL     1      14.909   0.223   1.102  0.00  0.00    -0.030 A 
ATOM     29  C   UNL     1      15.726  -0.675   0.407  0.00  0.00    +0.007 A 
ATOM     30  C   UNL     1      14.600  -0.027   2.423  0.00  0.00    +0.007 A 
ATOM     31  C   UNL     1      16.082  -1.897   1.015  0.00  0.00    +0.023 A 
ATOM     32  C   UNL     1      15.011  -1.218   3.033  0.00  0.00    +0.023 A 
ATOM     33  C   UNL     1      15.724  -2.189   2.324  0.00  0.00    +0.030 A 
BRANCH  33  34
ATOM     34  N   UNL     1      16.089  -3.372   2.951  0.00  0.00    -0.333 N 
ATOM     35  C   UNL     1      16.243  -3.426   4.408  0.00  0.00    +0.086 C 
ATOM     36  C   UNL     1      15.879  -4.673   2.314  0.00  0.00    +0.086 C 
ATOM     37  C   UNL     1      17.392  -4.398   4.749  0.00  0.00    -0.060 C 
ATOM     38  C   UNL     1      17.062  -5.576   2.707  0.00  0.00    -0.060 C 
ATOM     39  N   UNL     1      17.165  -5.733   4.144  0.00  0.00    +0.380 N 
ATOM     40  C   UNL     1      18.245  -6.648   4.497  0.00  0.00    -0.096 C 
ATOM     41  H   UNL     1      16.299  -6.135   4.503  0.00  0.00    -0.082 HD
ENDBRANCH  33  34
ENDBRANCH  27  28
ENDBRANCH  25  27
ENDBRANCH  10  23
TORSDOF 5
