REMARK  Name = CTX-1020566
REMARK  6 active torsions:
REMARK  status: ('A' for Active; 'I' for Inactive)
REMARK    1  A    between atoms: C_2  and  C_4
REMARK    2  A    between atoms: N_3  and  C_5
REMARK    3  A    between atoms: C_5  and  C_8
REMARK    4  A    between atoms: C_19  and  O_22
REMARK    5  A    between atoms: C_21  and  C_24
REMARK    6  A    between atoms: C_26  and  C_29
REMARK                            x       y       z     vdW  Elec       q    Type
REMARK                         _______ _______ _______ _____ _____    ______ ____
ROOT
ATOM      1  C   UNL     1       3.054   0.171  -1.409  0.00  0.00    +0.126 A 
ATOM      2  N   UNL     1       4.099  -0.688  -1.610  0.00  0.00    -0.245 NA
ATOM      3  C   UNL     1       2.614   1.097  -2.347  0.00  0.00    +0.033 A 
ATOM      4  C   UNL     1       4.726  -0.626  -2.827  0.00  0.00    +0.063 A 
ATOM      5  C   UNL     1       3.268   1.157  -3.564  0.00  0.00    +0.008 A 
ATOM      6  C   UNL     1       4.341   0.300  -3.818  0.00  0.00    -0.023 A 
ATOM      7  C   UNL     1       5.899  -1.581  -3.094  0.00  0.00    +0.163 C 
ATOM      8  C   UNL     1       5.001   0.344  -5.171  0.00  0.00    +0.056 C 
ATOM      9  N   UNL     1       6.279  -1.648  -4.510  0.00  0.00    -0.289 N 
ATOM     10  C   UNL     1       6.342  -0.377  -5.210  0.00  0.00    +0.113 C 
ATOM     11  C   UNL     1       6.826  -2.813  -5.057  0.00  0.00    +0.283 C 
ATOM     12  O   UNL     1       7.428  -3.625  -4.357  0.00  0.00    -0.267 OA
ENDROOT
BRANCH  11  13
ATOM     13  C   UNL     1       6.390  -3.119  -6.424  0.00  0.00    +0.194 A 
ATOM     14  O   UNL     1       5.197  -2.545  -6.800  0.00  0.00    -0.450 OA
ATOM     15  C   UNL     1       6.599  -4.216  -7.260  0.00  0.00    +0.008 A 
ATOM     16  C   UNL     1       4.469  -3.554  -7.316  0.00  0.00    +0.136 A 
ATOM     17  C   UNL     1       5.267  -4.671  -7.501  0.00  0.00    +0.024 A 
ATOM     18  C   UNL     1       7.848  -4.893  -7.707  0.00  0.00    +0.048 C 
ATOM     19  C   UNL     1       3.098  -3.506  -7.534  0.00  0.00    +0.047 A 
ATOM     20  C   UNL     1       4.652  -5.885  -7.846  0.00  0.00    +0.012 A 
ATOM     21  C   UNL     1       2.501  -4.729  -7.834  0.00  0.00    +0.004 A 
ATOM     22  C   UNL     1       3.254  -5.904  -7.957  0.00  0.00    +0.001 A 
ENDBRANCH  11  13
BRANCH   1  24
ATOM     23  O   UNL     1       1.319   0.829   0.082  0.00  0.00    -0.269 OA
ATOM     24  C   UNL     1       2.306   0.120  -0.103  0.00  0.00    +0.263 C 
ATOM     25  N   UNL     1       2.774  -0.763   0.833  0.00  0.00    -0.306 N 
ATOM     26  H   UNL     1       3.580  -1.290   0.631  0.00  0.00    +0.149 HD
BRANCH  25  27
ATOM     27  C   UNL     1       2.118  -0.944   2.113  0.00  0.00    +0.140 C 
BRANCH  27  28
ATOM     28  C   UNL     1       3.022  -0.567   3.261  0.00  0.00    -0.030 A 
ATOM     29  C   UNL     1       3.092   0.762   3.709  0.00  0.00    +0.009 A 
ATOM     30  C   UNL     1       3.817  -1.538   3.886  0.00  0.00    +0.009 A 
ATOM     31  C   UNL     1       3.928   1.111   4.774  0.00  0.00    +0.046 A 
ATOM     32  C   UNL     1       4.654  -1.188   4.946  0.00  0.00    +0.046 A 
ATOM     33  C   UNL     1       4.702   0.130   5.384  0.00  0.00    +0.117 A 
BRANCH  33  34
ATOM     34  O   UNL     1       5.530   0.422   6.427  0.00  0.00    -0.507 OA
ATOM     35  H   UNL     1       5.587   1.301   6.748  0.00  0.00    +0.292 HD
ENDBRANCH  33  34
ENDBRANCH  27  28
ENDBRANCH  25  27
ENDBRANCH   1  24
TORSDOF 5
