REMARK  Name = CTX-1020562
REMARK  8 active torsions:
REMARK  status: ('A' for Active; 'I' for Inactive)
REMARK    1  A    between atoms: C_2  and  C_5
REMARK    2  A    between atoms: C_5  and  N_6
REMARK    3  A    between atoms: N_11  and  C_12
REMARK    4  A    between atoms: C_17  and  C_18
REMARK    5  A    between atoms: C_18  and  N_19
REMARK    6  A    between atoms: C_20  and  C_22
REMARK    7  A    between atoms: C_32  and  C_34
REMARK    8  A    between atoms: C_36  and  C_39
REMARK                            x       y       z     vdW  Elec       q    Type
REMARK                         _______ _______ _______ _____ _____    ______ ____
ROOT
ATOM      1  N   UNL     1       9.835   0.480   6.146  0.00  0.00    -0.306 N 
ATOM      2  C   UNL     1      10.719   0.278   7.185  0.00  0.00    +0.263 C 
ATOM      3  O   UNL     1      10.547   0.729   8.313  0.00  0.00    -0.269 OA
ATOM      4  H   UNL     1      10.058   0.127   5.254  0.00  0.00    +0.149 HD
ENDROOT
BRANCH   2   5
ATOM      5  C   UNL     1      11.920  -0.555   6.848  0.00  0.00    +0.126 A 
ATOM      6  N   UNL     1      12.032  -1.014   5.565  0.00  0.00    -0.245 NA
ATOM      7  C   UNL     1      12.860  -0.789   7.841  0.00  0.00    +0.033 A 
ATOM      8  C   UNL     1      13.155  -1.725   5.254  0.00  0.00    +0.063 A 
ATOM      9  C   UNL     1      13.987  -1.528   7.512  0.00  0.00    +0.008 A 
ATOM     10  C   UNL     1      14.144  -2.011   6.207  0.00  0.00    -0.023 A 
ATOM     11  C   UNL     1      13.297  -2.233   3.816  0.00  0.00    +0.163 C 
ATOM     12  C   UNL     1      15.411  -2.745   5.843  0.00  0.00    +0.056 C 
ATOM     13  N   UNL     1      14.650  -2.689   3.502  0.00  0.00    -0.289 N 
ATOM     14  C   UNL     1      15.305  -3.494   4.519  0.00  0.00    +0.113 C 
ATOM     15  C   UNL     1      15.164  -2.548   2.210  0.00  0.00    +0.283 C 
ATOM     16  O   UNL     1      14.420  -2.477   1.232  0.00  0.00    -0.267 OA
BRANCH  15  17
ATOM     17  C   UNL     1      16.596  -2.209   2.138  0.00  0.00    +0.194 A 
ATOM     18  O   UNL     1      17.074  -1.556   3.260  0.00  0.00    -0.450 OA
ATOM     19  C   UNL     1      17.340  -1.727   1.058  0.00  0.00    +0.008 A 
ATOM     20  C   UNL     1      17.353  -0.311   2.801  0.00  0.00    +0.136 A 
ATOM     21  C   UNL     1      17.493  -0.352   1.422  0.00  0.00    +0.024 A 
ATOM     22  C   UNL     1      17.592  -2.320  -0.277  0.00  0.00    +0.048 C 
ATOM     23  C   UNL     1      17.364   0.833   3.580  0.00  0.00    +0.047 A 
ATOM     24  C   UNL     1      17.650   0.863   0.734  0.00  0.00    +0.012 A 
ATOM     25  C   UNL     1      17.395   2.032   2.869  0.00  0.00    +0.004 A 
ATOM     26  C   UNL     1      17.530   2.050   1.474  0.00  0.00    +0.001 A 
ENDBRANCH  15  17
ENDBRANCH   2   5
BRANCH   1  27
ATOM     27  C   UNL     1       8.596   1.192   6.326  0.00  0.00    +0.140 C 
BRANCH  27  33
ATOM     28  C   UNL     1       7.250   3.261   2.737  0.00  0.00    +0.030 A 
ATOM     29  C   UNL     1       6.466   2.282   3.358  0.00  0.00    +0.023 A 
ATOM     30  C   UNL     1       8.508   3.520   3.303  0.00  0.00    +0.023 A 
ATOM     31  C   UNL     1       6.907   1.595   4.496  0.00  0.00    +0.007 A 
ATOM     32  C   UNL     1       8.955   2.848   4.448  0.00  0.00    +0.007 A 
ATOM     33  C   UNL     1       8.154   1.879   5.061  0.00  0.00    -0.030 A 
BRANCH  28  39
ATOM     34  N   UNL     1       5.753   4.272  -1.119  0.00  0.00    +0.388 N 
ATOM     35  C   UNL     1       4.886   3.925   0.035  0.00  0.00    -0.059 C 
ATOM     36  C   UNL     1       7.120   3.765  -0.834  0.00  0.00    -0.059 C 
ATOM     37  C   UNL     1       5.414   4.342   1.429  0.00  0.00    +0.086 C 
ATOM     38  C   UNL     1       7.734   4.230   0.511  0.00  0.00    +0.086 C 
ATOM     39  N   UNL     1       6.812   3.927   1.610  0.00  0.00    -0.333 N 
ATOM     40  H   UNL     1       5.368   3.832  -1.954  0.00  0.00    -0.081 HD
BRANCH  34  41
ATOM     41  C   UNL     1       5.782   5.729  -1.414  0.00  0.00    +0.036 C 
BRANCH  41  43
ATOM     42  F   UNL     1       3.409   5.646  -1.923  0.00  0.00    -0.173 F 
ATOM     43  C   UNL     1       4.485   6.455  -1.849  0.00  0.00    +0.376 C 
ATOM     44  F   UNL     1       4.642   7.035  -3.062  0.00  0.00    -0.173 F 
ATOM     45  F   UNL     1       4.187   7.444  -0.970  0.00  0.00    -0.173 F 
ENDBRANCH  41  43
ENDBRANCH  34  41
ENDBRANCH  28  39
ENDBRANCH  27  33
ENDBRANCH   1  27
TORSDOF 7
