REMARK  Name = CTX-1020845
REMARK  6 active torsions:
REMARK  status: ('A' for Active; 'I' for Inactive)
REMARK    1  A    between atoms: C_3  and  C_6
REMARK    2  A    between atoms: C_21  and  C_22
REMARK    3  A    between atoms: N_24  and  C_25
REMARK    4  A    between atoms: C_25  and  C_26
REMARK    5  A    between atoms: C_31  and  N_32
REMARK    6  A    between atoms: N_37  and  C_38
REMARK                            x       y       z     vdW  Elec       q    Type
REMARK                         _______ _______ _______ _____ _____    ______ ____
ROOT
ATOM      1  C   UNL     1       9.034 -10.368  -0.362  0.00  0.00    +0.255 C 
ATOM      2  O   UNL     1       9.054 -10.653  -1.559  0.00  0.00    -0.269 OA
ATOM      3  N   UNL     1       7.863  -9.753   0.201  0.00  0.00    -0.292 N 
ATOM      4  C   UNL     1       6.917  -8.857  -0.630  0.00  0.00    +0.144 C 
ATOM      5  C   UNL     1       7.212 -10.699   1.095  0.00  0.00    +0.113 C 
ATOM      6  C   UNL     1       5.457  -8.869  -0.090  0.00  0.00    -0.019 A 
ATOM      7  C   UNL     1       6.169 -10.081   2.008  0.00  0.00    +0.062 C 
ATOM      8  C   UNL     1       5.215  -9.312   1.193  0.00  0.00    -0.003 A 
ATOM      9  C   UNL     1       4.141  -8.627  -0.716  0.00  0.00    +0.026 A 
ATOM     10  S   UNL     1       3.631  -9.052   1.739  0.00  0.00    -0.088 S 
ATOM     11  C   UNL     1       3.123  -9.129   0.105  0.00  0.00    +0.074 A 
ENDROOT
BRANCH   1  14
ATOM     12 CL   UNL     1      10.959 -13.157  -0.496  0.00  0.00    -0.082 Cl
ATOM     13  C   UNL     1      11.048 -11.803   0.565  0.00  0.00    +0.069 A 
ATOM     14  C   UNL     1      10.159 -10.725   0.570  0.00  0.00    +0.094 A 
ATOM     15  C   UNL     1      12.094 -11.731   1.586  0.00  0.00    +0.026 A 
ATOM     16  S   UNL     1      10.550  -9.681   1.880  0.00  0.00    -0.082 S 
ATOM     17  C   UNL     1      11.916 -10.594   2.385  0.00  0.00    +0.024 A 
ATOM     18  C   UNL     1      13.180 -12.564   1.885  0.00  0.00    +0.121 A 
ATOM     19  C   UNL     1      12.804 -10.303   3.461  0.00  0.00    +0.035 A 
ATOM     20  N   UNL     1      14.036 -12.285   2.915  0.00  0.00    -0.263 NA
ATOM     21  C   UNL     1      13.852 -11.182   3.659  0.00  0.00    +0.112 A 
ENDBRANCH   1  14
BRANCH  11  22
ATOM     22  C   UNL     1       1.868  -9.825  -0.147  0.00  0.00    +0.251 C 
ATOM     23  O   UNL     1       0.788  -9.279  -0.357  0.00  0.00    -0.270 OA
ATOM     24  N   UNL     1       1.933 -11.216  -0.072  0.00  0.00    -0.307 N 
ATOM     25  H   UNL     1       1.099 -11.715  -0.227  0.00  0.00    +0.149 HD
BRANCH  24  26
ATOM     26  C   UNL     1       3.134 -11.995   0.216  0.00  0.00    +0.139 C 
BRANCH  26  27
ATOM     27  C   UNL     1       3.139 -13.342  -0.431  0.00  0.00    -0.030 A 
ATOM     28  C   UNL     1       3.270 -13.444  -1.818  0.00  0.00    +0.007 A 
ATOM     29  C   UNL     1       3.083 -14.516   0.318  0.00  0.00    +0.007 A 
ATOM     30  C   UNL     1       3.305 -14.694  -2.445  0.00  0.00    +0.023 A 
ATOM     31  C   UNL     1       3.118 -15.759  -0.323  0.00  0.00    +0.023 A 
ATOM     32  C   UNL     1       3.186 -15.884  -1.721  0.00  0.00    +0.030 A 
BRANCH  32  33
ATOM     33  N   UNL     1       3.057 -17.102  -2.358  0.00  0.00    -0.333 N 
ATOM     34  C   UNL     1       3.836 -17.450  -3.559  0.00  0.00    +0.086 C 
ATOM     35  C   UNL     1       2.442 -18.252  -1.679  0.00  0.00    +0.086 C 
ATOM     36  C   UNL     1       2.978 -18.315  -4.516  0.00  0.00    -0.060 C 
ATOM     37  C   UNL     1       1.632 -19.097  -2.687  0.00  0.00    -0.060 C 
ATOM     38  N   UNL     1       2.443 -19.523  -3.848  0.00  0.00    +0.380 N 
ATOM     39  C   UNL     1       1.642 -20.322  -4.770  0.00  0.00    -0.096 C 
ATOM     40  H   UNL     1       3.216 -20.109  -3.534  0.00  0.00    -0.082 HD
ENDBRANCH  32  33
ENDBRANCH  26  27
ENDBRANCH  24  26
ENDBRANCH  11  22
TORSDOF 5
