REMARK  Name = CTX-1020670
REMARK  4 active torsions:
REMARK  status: ('A' for Active; 'I' for Inactive)
REMARK    1  A    between atoms: C_3  and  C_6
REMARK    2  A    between atoms: C_21  and  C_22
REMARK    3  A    between atoms: N_24  and  C_25
REMARK    4  A    between atoms: C_25  and  C_26
REMARK                            x       y       z     vdW  Elec       q    Type
REMARK                         _______ _______ _______ _____ _____    ______ ____
ROOT
ATOM      1  C   UNL     1       4.695  -3.445   0.807  0.00  0.00    +0.255 C 
ATOM      2  O   UNL     1       4.638  -2.589  -0.085  0.00  0.00    -0.269 OA
ATOM      3  N   UNL     1       4.307  -4.773   0.485  0.00  0.00    -0.292 N 
ATOM      4  C   UNL     1       5.065  -6.048   0.760  0.00  0.00    +0.144 C 
ATOM      5  C   UNL     1       3.164  -4.795  -0.442  0.00  0.00    +0.113 C 
ATOM      6  C   UNL     1       4.293  -7.283   0.285  0.00  0.00    -0.019 A 
ATOM      7  C   UNL     1       3.051  -5.932  -1.448  0.00  0.00    +0.062 C 
ATOM      8  C   UNL     1       3.476  -7.189  -0.822  0.00  0.00    -0.003 A 
ATOM      9  C   UNL     1       4.149  -8.630   0.833  0.00  0.00    +0.026 A 
ATOM     10  S   UNL     1       2.887  -8.679  -1.375  0.00  0.00    -0.088 S 
ATOM     11  C   UNL     1       3.072  -9.277   0.222  0.00  0.00    +0.074 A 
ENDROOT
BRANCH   1  14
ATOM     12 CL   UNL     1       3.334  -0.693   1.965  0.00  0.00    -0.082 Cl
ATOM     13  C   UNL     1       4.355  -1.842   2.762  0.00  0.00    +0.068 A 
ATOM     14  C   UNL     1       4.869  -3.008   2.191  0.00  0.00    +0.093 A 
ATOM     15  C   UNL     1       4.715  -1.657   4.144  0.00  0.00    +0.008 A 
ATOM     16  S   UNL     1       5.868  -3.817   3.299  0.00  0.00    -0.082 S 
ATOM     17  C   UNL     1       5.557  -2.690   4.569  0.00  0.00    +0.021 A 
ATOM     18  C   UNL     1       4.363  -0.655   5.099  0.00  0.00    +0.010 A 
ATOM     19  C   UNL     1       6.047  -2.742   5.881  0.00  0.00    +0.016 A 
ATOM     20  C   UNL     1       4.838  -0.720   6.412  0.00  0.00    +0.001 A 
ATOM     21  C   UNL     1       5.676  -1.756   6.799  0.00  0.00    +0.001 A 
ENDBRANCH   1  14
BRANCH  11  22
ATOM     22  C   UNL     1       2.075 -10.221   0.690  0.00  0.00    +0.251 C 
ATOM     23  O   UNL     1       2.265 -11.431   0.820  0.00  0.00    -0.270 OA
ATOM     24  N   UNL     1       0.824  -9.684   0.969  0.00  0.00    -0.307 N 
ATOM     25  H   UNL     1       0.143 -10.299   1.326  0.00  0.00    +0.149 HD
BRANCH  24  26
ATOM     26  C   UNL     1       0.426  -8.296   0.782  0.00  0.00    +0.139 C 
BRANCH  26  27
ATOM     27  C   UNL     1      -0.566  -7.792   1.791  0.00  0.00    -0.030 A 
ATOM     28  C   UNL     1      -0.123  -7.449   3.078  0.00  0.00    +0.005 A 
ATOM     29  C   UNL     1      -1.900  -7.549   1.443  0.00  0.00    +0.005 A 
ATOM     30  C   UNL     1      -0.991  -6.849   3.989  0.00  0.00    +0.000 A 
ATOM     31  C   UNL     1      -2.769  -6.952   2.360  0.00  0.00    +0.000 A 
ATOM     32  C   UNL     1      -2.313  -6.598   3.629  0.00  0.00    +0.000 A 
ENDBRANCH  26  27
ENDBRANCH  24  26
ENDBRANCH  11  22
TORSDOF 4
