REMARK  Name = CTX-1020671
REMARK  4 active torsions:
REMARK  status: ('A' for Active; 'I' for Inactive)
REMARK    1  A    between atoms: C_2  and  C_4
REMARK    2  A    between atoms: N_9  and  C_12
REMARK    3  A    between atoms: C_12  and  C_14
REMARK    4  A    between atoms: C_15  and  C_19
REMARK                            x       y       z     vdW  Elec       q    Type
REMARK                         _______ _______ _______ _____ _____    ______ ____
ROOT
ATOM      1  S   UNL     1       1.812  -0.694  -0.065  0.00  0.00    -0.088 S 
ATOM      2  C   UNL     1       2.151   0.986   0.011  0.00  0.00    +0.074 A 
ATOM      3  C   UNL     1       0.134  -0.424   0.004  0.00  0.00    -0.003 A 
ATOM      4  C   UNL     1       0.981   1.726   0.081  0.00  0.00    +0.026 A 
ATOM      5  C   UNL     1      -0.191   0.917   0.100  0.00  0.00    -0.019 A 
ATOM      6  C   UNL     1      -0.884  -1.530  -0.076  0.00  0.00    +0.062 C 
ATOM      7  C   UNL     1      -1.609   1.397   0.219  0.00  0.00    +0.144 C 
ATOM      8  C   UNL     1      -2.277  -0.973   0.289  0.00  0.00    +0.113 C 
ATOM      9  N   UNL     1      -2.484   0.351  -0.324  0.00  0.00    -0.293 N 
ATOM     10  C   UNL     1      -3.403   0.486  -1.363  0.00  0.00    +0.251 C 
ATOM     11  O   UNL     1      -4.197  -0.412  -1.635  0.00  0.00    -0.270 OA
ENDROOT
BRANCH  10  12
ATOM     12  C   UNL     1      -3.433   1.723  -2.131  0.00  0.00    +0.083 A 
ATOM     13  C   UNL     1      -4.549   2.312  -2.697  0.00  0.00    +0.097 A 
ATOM     14  C   UNL     1      -2.385   2.554  -2.588  0.00  0.00    +0.148 A 
ATOM     15  N   UNL     1      -4.147   3.478  -3.311  0.00  0.00    -0.236 N 
ATOM     16  C   UNL     1      -5.944   1.971  -2.754  0.00  0.00    +0.139 A 
ATOM     17  N   UNL     1      -2.808   3.641  -3.234  0.00  0.00    -0.174 NA
ATOM     18  C   UNL     1      -5.086   4.297  -3.911  0.00  0.00    +0.132 A 
ATOM     19  N   UNL     1      -6.823   2.743  -3.336  0.00  0.00    -0.260 NA
ATOM     20  C   UNL     1      -6.372   3.917  -3.909  0.00  0.00    +0.130 A 
ENDBRANCH  10  12
BRANCH   2  21
ATOM     21  C   UNL     1       3.500   1.538   0.008  0.00  0.00    +0.251 C 
ATOM     22  O   UNL     1       3.704   2.750   0.044  0.00  0.00    -0.270 OA
ATOM     23  N   UNL     1       4.543   0.637  -0.022  0.00  0.00    -0.307 N 
ATOM     24  H   UNL     1       4.341  -0.324  -0.090  0.00  0.00    +0.149 HD
BRANCH  23  25
ATOM     25  C   UNL     1       5.924   1.060   0.044  0.00  0.00    +0.139 C 
BRANCH  25  26
ATOM     26  C   UNL     1       6.708   0.652  -1.177  0.00  0.00    -0.030 A 
ATOM     27  C   UNL     1       6.325   1.096  -2.451  0.00  0.00    +0.005 A 
ATOM     28  C   UNL     1       7.879  -0.111  -1.052  0.00  0.00    +0.005 A 
ATOM     29  C   UNL     1       7.094   0.782  -3.574  0.00  0.00    +0.000 A 
ATOM     30  C   UNL     1       8.648  -0.421  -2.176  0.00  0.00    +0.000 A 
ATOM     31  C   UNL     1       8.257   0.028  -3.436  0.00  0.00    +0.000 A 
ENDBRANCH  25  26
ENDBRANCH  23  25
ENDBRANCH   2  21
TORSDOF 4
