REMARK  Name = CTX-1020565
REMARK  6 active torsions:
REMARK  status: ('A' for Active; 'I' for Inactive)
REMARK    1  A    between atoms: C_2  and  C_4
REMARK    2  A    between atoms: N_3  and  C_5
REMARK    3  A    between atoms: C_5  and  C_8
REMARK    4  A    between atoms: C_19  and  N_22
REMARK    5  A    between atoms: C_21  and  C_24
REMARK    6  A    between atoms: C_28  and  C_33
REMARK                            x       y       z     vdW  Elec       q    Type
REMARK                         _______ _______ _______ _____ _____    ______ ____
ROOT
ATOM      1  C   UNL     1       2.938   1.021  -0.943  0.00  0.00    +0.126 A 
ATOM      2  N   UNL     1       3.945   0.635  -1.788  0.00  0.00    -0.245 NA
ATOM      3  C   UNL     1       2.486   2.332  -0.828  0.00  0.00    +0.033 A 
ATOM      4  C   UNL     1       4.505   1.610  -2.579  0.00  0.00    +0.063 A 
ATOM      5  C   UNL     1       3.074   3.307  -1.613  0.00  0.00    +0.008 A 
ATOM      6  C   UNL     1       4.098   2.956  -2.497  0.00  0.00    -0.023 A 
ATOM      7  C   UNL     1       5.628   1.213  -3.551  0.00  0.00    +0.163 C 
ATOM      8  C   UNL     1       4.676   4.021  -3.396  0.00  0.00    +0.056 C 
ATOM      9  N   UNL     1       5.909   2.239  -4.567  0.00  0.00    -0.289 N 
ATOM     10  C   UNL     1       5.987   3.601  -4.054  0.00  0.00    +0.113 C 
ATOM     11  C   UNL     1       6.120   1.877  -5.913  0.00  0.00    +0.283 C 
ATOM     12  O   UNL     1       6.491   0.739  -6.201  0.00  0.00    -0.267 OA
ENDROOT
BRANCH  11  13
ATOM     13  C   UNL     1       5.663   2.838  -6.948  0.00  0.00    +0.194 A 
ATOM     14  O   UNL     1       4.686   3.709  -6.494  0.00  0.00    -0.450 OA
ATOM     15  C   UNL     1       5.346   2.633  -8.299  0.00  0.00    +0.008 A 
ATOM     16  C   UNL     1       3.579   3.368  -7.184  0.00  0.00    +0.136 A 
ATOM     17  C   UNL     1       3.921   2.604  -8.284  0.00  0.00    +0.024 A 
ATOM     18  C   UNL     1       6.177   2.558  -9.526  0.00  0.00    +0.048 C 
ATOM     19  C   UNL     1       2.283   3.694  -6.814  0.00  0.00    +0.047 A 
ATOM     20  C   UNL     1       2.896   2.104  -9.100  0.00  0.00    +0.012 A 
ATOM     21  C   UNL     1       1.275   3.150  -7.608  0.00  0.00    +0.004 A 
ATOM     22  C   UNL     1       1.571   2.353  -8.717  0.00  0.00    +0.001 A 
ENDBRANCH  11  13
BRANCH   1  24
ATOM     23  O   UNL     1       1.248   0.305   0.562  0.00  0.00    -0.269 OA
ATOM     24  C   UNL     1       2.237  -0.007  -0.100  0.00  0.00    +0.263 C 
ATOM     25  N   UNL     1       2.745  -1.290  -0.111  0.00  0.00    -0.306 N 
ATOM     26  H   UNL     1       3.533  -1.494  -0.666  0.00  0.00    +0.149 HD
BRANCH  25  27
ATOM     27  C   UNL     1       2.140  -2.343   0.681  0.00  0.00    +0.140 C 
BRANCH  27  28
ATOM     28  C   UNL     1       2.740  -2.451   2.061  0.00  0.00    -0.030 A 
ATOM     29  C   UNL     1       2.177  -1.770   3.144  0.00  0.00    +0.007 A 
ATOM     30  C   UNL     1       3.877  -3.220   2.291  0.00  0.00    +0.007 A 
ATOM     31  C   UNL     1       2.732  -1.876   4.428  0.00  0.00    +0.023 A 
ATOM     32  C   UNL     1       4.439  -3.304   3.580  0.00  0.00    +0.023 A 
ATOM     33  C   UNL     1       3.876  -2.646   4.682  0.00  0.00    +0.030 A 
BRANCH  33  34
ATOM     34  N   UNL     1       4.418  -2.742   5.944  0.00  0.00    -0.326 N 
ATOM     35  C   UNL     1       3.604  -2.756   7.167  0.00  0.00    +0.133 C 
ATOM     36  C   UNL     1       5.865  -2.814   6.188  0.00  0.00    +0.133 C 
ATOM     37  C   UNL     1       4.090  -1.656   8.121  0.00  0.00    +0.178 C 
ATOM     38  C   UNL     1       6.263  -1.719   7.197  0.00  0.00    +0.178 C 
ATOM     39  O   UNL     1       5.493  -1.796   8.411  0.00  0.00    -0.377 OA
ENDBRANCH  33  34
ENDBRANCH  27  28
ENDBRANCH  25  27
ENDBRANCH   1  24
TORSDOF 5
