REMARK  Name = CTX-1020685
REMARK  6 active torsions:
REMARK  status: ('A' for Active; 'I' for Inactive)
REMARK    1  A    between atoms: C_2  and  C_4
REMARK    2  A    between atoms: N_3  and  C_5
REMARK    3  A    between atoms: C_5  and  C_8
REMARK    4  A    between atoms: C_19  and  N_22
REMARK    5  A    between atoms: C_21  and  C_24
REMARK    6  A    between atoms: C_28  and  C_33
REMARK                            x       y       z     vdW  Elec       q    Type
REMARK                         _______ _______ _______ _____ _____    ______ ____
ROOT
ATOM      1  C   UNL     1       3.068  -0.992   0.829  0.00  0.00    +0.126 A 
ATOM      2  N   UNL     1       4.209  -0.479   1.374  0.00  0.00    -0.245 NA
ATOM      3  C   UNL     1       2.612  -2.281   1.067  0.00  0.00    +0.033 A 
ATOM      4  C   UNL     1       4.916  -1.300   2.208  0.00  0.00    +0.063 A 
ATOM      5  C   UNL     1       3.376  -3.118   1.867  0.00  0.00    +0.008 A 
ATOM      6  C   UNL     1       4.555  -2.639   2.443  0.00  0.00    -0.023 A 
ATOM      7  C   UNL     1       6.126  -0.704   2.925  0.00  0.00    +0.163 C 
ATOM      8  C   UNL     1       5.348  -3.529   3.370  0.00  0.00    +0.056 C 
ATOM      9  N   UNL     1       6.576  -1.516   4.055  0.00  0.00    -0.289 N 
ATOM     10  C   UNL     1       6.696  -2.933   3.772  0.00  0.00    +0.113 C 
ATOM     11  C   UNL     1       7.195  -0.881   5.149  0.00  0.00    +0.283 C 
ATOM     12  O   UNL     1       7.504   0.297   5.069  0.00  0.00    -0.267 OA
ENDROOT
BRANCH  11  13
ATOM     13  C   UNL     1       7.282  -1.645   6.412  0.00  0.00    +0.194 A 
ATOM     14  O   UNL     1       6.198  -2.510   6.548  0.00  0.00    -0.450 OA
ATOM     15  C   UNL     1       7.470  -1.159   7.716  0.00  0.00    +0.008 A 
ATOM     16  C   UNL     1       5.394  -1.873   7.445  0.00  0.00    +0.136 A 
ATOM     17  C   UNL     1       6.136  -0.943   8.161  0.00  0.00    +0.024 A 
ATOM     18  C   UNL     1       8.632  -1.138   8.641  0.00  0.00    +0.048 C 
ATOM     19  C   UNL     1       4.040  -2.114   7.633  0.00  0.00    +0.047 A 
ATOM     20  C   UNL     1       5.512  -0.211   9.172  0.00  0.00    +0.012 A 
ATOM     21  C   UNL     1       3.424  -1.332   8.608  0.00  0.00    +0.004 A 
ATOM     22  C   UNL     1       4.138  -0.396   9.363  0.00  0.00    +0.001 A 
ENDBRANCH  11  13
BRANCH   1  24
ATOM     23  O   UNL     1       1.208  -0.537  -0.575  0.00  0.00    -0.269 OA
ATOM     24  C   UNL     1       2.270  -0.121  -0.094  0.00  0.00    +0.263 C 
ATOM     25  N   UNL     1       2.781   1.127  -0.369  0.00  0.00    -0.306 N 
ATOM     26  H   UNL     1       3.612   1.417   0.071  0.00  0.00    +0.149 HD
BRANCH  25  27
ATOM     27  C   UNL     1       2.120   2.021  -1.294  0.00  0.00    +0.140 C 
BRANCH  27  28
ATOM     28  C   UNL     1       2.977   2.383  -2.482  0.00  0.00    -0.030 A 
ATOM     29  C   UNL     1       3.445   1.403  -3.366  0.00  0.00    +0.007 A 
ATOM     30  C   UNL     1       3.265   3.719  -2.770  0.00  0.00    +0.007 A 
ATOM     31  C   UNL     1       4.208   1.769  -4.495  0.00  0.00    +0.023 A 
ATOM     32  C   UNL     1       4.041   4.061  -3.882  0.00  0.00    +0.023 A 
ATOM     33  C   UNL     1       4.516   3.095  -4.775  0.00  0.00    +0.030 A 
BRANCH  33  34
ATOM     34  N   UNL     1       5.240   3.450  -5.891  0.00  0.00    -0.333 N 
ATOM     35  C   UNL     1       5.167   2.680  -7.135  0.00  0.00    +0.086 C 
ATOM     36  C   UNL     1       6.221   4.540  -5.864  0.00  0.00    +0.086 C 
ATOM     37  C   UNL     1       6.573   2.225  -7.576  0.00  0.00    -0.063 C 
ATOM     38  C   UNL     1       7.598   4.022  -6.348  0.00  0.00    -0.063 C 
ATOM     39  N   UNL     1       7.556   3.329  -7.656  0.00  0.00    +0.381 N 
ATOM     40  H   UNL     1       7.275   3.987  -8.383  0.00  0.00    -0.086 HD
ATOM     41  H   UNL     1       8.478   2.958  -7.883  0.00  0.00    -0.086 HD
ENDBRANCH  33  34
ENDBRANCH  27  28
ENDBRANCH  25  27
ENDBRANCH   1  24
TORSDOF 5
