REMARK  Name = CTX-1020555
REMARK  6 active torsions:
REMARK  status: ('A' for Active; 'I' for Inactive)
REMARK    1  A    between atoms: C_10  and  C_11
REMARK    2  A    between atoms: C_21  and  C_22
REMARK    3  A    between atoms: N_24  and  C_25
REMARK    4  A    between atoms: C_25  and  C_26
REMARK    5  A    between atoms: C_31  and  N_32
REMARK    6  A    between atoms: N_37  and  C_38
REMARK                            x       y       z     vdW  Elec       q    Type
REMARK                         _______ _______ _______ _____ _____    ______ ____
ROOT
ATOM      1  C   UNL     1       6.796  10.682   1.329  0.00  0.00    +0.250 C 
ATOM      2  O   UNL     1       7.691  11.556   1.310  0.00  0.00    -0.270 OA
ATOM      3  N   UNL     1       7.176   9.133   1.101  0.00  0.00    -0.293 N 
ATOM      4  C   UNL     1       7.356   7.626   0.072  0.00  0.00    +0.144 C 
ATOM      5  C   UNL     1       8.476   9.421   1.524  0.00  0.00    +0.113 C 
ATOM      6  C   UNL     1       8.925   6.709  -0.248  0.00  0.00    -0.019 A 
ATOM      7  C   UNL     1       9.174   8.199   1.642  0.00  0.00    +0.062 C 
ATOM      8  C   UNL     1       9.606   7.096   0.897  0.00  0.00    -0.003 A 
ATOM      9  C   UNL     1      10.301   5.939  -0.508  0.00  0.00    +0.026 A 
ATOM     10  S   UNL     1      11.089   6.755   1.573  0.00  0.00    -0.088 S 
ATOM     11  C   UNL     1      11.557   6.458  -0.015  0.00  0.00    +0.074 A 
ENDROOT
BRANCH   1  21
ATOM     12 CL   UNL     1       0.001  10.133   2.970  0.00  0.00    -0.082 Cl
ATOM     13  C   UNL     1       1.689  10.463   2.771  0.00  0.00    +0.059 A 
ATOM     14  C   UNL     1       2.269  11.607   3.160  0.00  0.00    +0.133 A 
ATOM     15  C   UNL     1       2.489   9.400   2.186  0.00  0.00    +0.023 A 
ATOM     16  N   UNL     1       3.617  11.759   2.954  0.00  0.00    -0.238 N 
ATOM     17  C   UNL     1       3.793   9.574   1.950  0.00  0.00    +0.030 A 
ATOM     18  N   UNL     1       4.388  12.829   3.274  0.00  0.00    -0.174 NA
ATOM     19  C   UNL     1       4.399  10.775   2.336  0.00  0.00    +0.079 A 
ATOM     20  C   UNL     1       5.598  12.518   2.790  0.00  0.00    +0.148 A 
ATOM     21  C   UNL     1       5.654  11.240   2.104  0.00  0.00    +0.082 A 
ENDBRANCH   1  21
BRANCH  11  22
ATOM     22  C   UNL     1      13.018   6.520  -0.132  0.00  0.00    +0.251 C 
ATOM     23  O   UNL     1      13.796   5.569  -0.096  0.00  0.00    -0.270 OA
ATOM     24  N   UNL     1      13.525   7.829  -0.096  0.00  0.00    -0.307 N 
ATOM     25  H   UNL     1      14.501   7.960  -0.107  0.00  0.00    +0.149 HD
BRANCH  24  26
ATOM     26  C   UNL     1      12.664   8.997  -0.043  0.00  0.00    +0.139 C 
BRANCH  26  27
ATOM     27  C   UNL     1      13.254  10.175  -0.706  0.00  0.00    -0.030 A 
ATOM     28  C   UNL     1      13.142  10.306  -2.086  0.00  0.00    +0.007 A 
ATOM     29  C   UNL     1      13.881  11.144   0.064  0.00  0.00    +0.007 A 
ATOM     30  C   UNL     1      13.790  11.351  -2.710  0.00  0.00    +0.023 A 
ATOM     31  C   UNL     1      14.453  12.225  -0.568  0.00  0.00    +0.023 A 
ATOM     32  C   UNL     1      14.491  12.312  -1.965  0.00  0.00    +0.030 A 
BRANCH  32  33
ATOM     33  N   UNL     1      15.271  13.255  -2.583  0.00  0.00    -0.333 N 
ATOM     34  C   UNL     1      14.928  13.767  -3.909  0.00  0.00    +0.086 C 
ATOM     35  C   UNL     1      16.235  14.074  -1.836  0.00  0.00    +0.086 C 
ATOM     36  C   UNL     1      16.221  13.965  -4.711  0.00  0.00    -0.060 C 
ATOM     37  C   UNL     1      17.484  14.320  -2.699  0.00  0.00    -0.060 C 
ATOM     38  N   UNL     1      17.130  14.899  -4.012  0.00  0.00    +0.380 N 
ATOM     39  C   UNL     1      18.317  15.155  -4.806  0.00  0.00    -0.096 C 
ATOM     40  H   UNL     1      16.661  15.794  -3.872  0.00  0.00    -0.082 HD
ENDBRANCH  32  33
ENDBRANCH  26  27
ENDBRANCH  24  26
ENDBRANCH  11  22
TORSDOF 5
