REMARK  Name = CTX-1020516
REMARK  5 active torsions:
REMARK  status: ('A' for Active; 'I' for Inactive)
REMARK    1  A    between atoms: C_2  and  C_4
REMARK    2  A    between atoms: N_9  and  C_12
REMARK    3  A    between atoms: C_12  and  C_14
REMARK    4  A    between atoms: C_15  and  C_19
REMARK    5  A    between atoms: C_23  and  C_27
REMARK                            x       y       z     vdW  Elec       q    Type
REMARK                         _______ _______ _______ _____ _____    ______ ____
ROOT
ATOM      1  S   UNL     1       1.772  -0.703  -0.033  0.00  0.00    -0.088 S 
ATOM      2  C   UNL     1       2.097   0.978   0.055  0.00  0.00    +0.074 A 
ATOM      3  C   UNL     1       0.087  -0.450  -0.034  0.00  0.00    -0.003 A 
ATOM      4  C   UNL     1       0.914   1.702   0.100  0.00  0.00    +0.026 A 
ATOM      5  C   UNL     1      -0.266   0.883   0.048  0.00  0.00    -0.019 A 
ATOM      6  C   UNL     1      -0.897  -1.570  -0.163  0.00  0.00    +0.062 C 
ATOM      7  C   UNL     1      -1.703   1.359   0.067  0.00  0.00    +0.144 C 
ATOM      8  C   UNL     1      -2.311  -1.067   0.173  0.00  0.00    +0.113 C 
ATOM      9  N   UNL     1      -2.587   0.273  -0.360  0.00  0.00    -0.290 N 
ATOM     10  C   UNL     1      -3.789   0.580  -1.008  0.00  0.00    +0.283 C 
ATOM     11  O   UNL     1      -4.337   1.671  -0.859  0.00  0.00    -0.267 OA
ENDROOT
BRANCH  10  12
ATOM     12  C   UNL     1      -4.177  -0.361  -2.076  0.00  0.00    +0.194 A 
ATOM     13  O   UNL     1      -3.111  -1.064  -2.606  0.00  0.00    -0.450 OA
ATOM     14  C   UNL     1      -5.082  -0.187  -3.131  0.00  0.00    +0.008 A 
ATOM     15  C   UNL     1      -2.999  -0.565  -3.865  0.00  0.00    +0.136 A 
ATOM     16  C   UNL     1      -4.194   0.044  -4.226  0.00  0.00    +0.024 A 
ATOM     17  C   UNL     1      -6.550   0.003  -3.110  0.00  0.00    +0.048 C 
ATOM     18  C   UNL     1      -1.834  -0.576  -4.608  0.00  0.00    +0.047 A 
ATOM     19  C   UNL     1      -4.238   0.725  -5.454  0.00  0.00    +0.012 A 
ATOM     20  C   UNL     1      -1.868   0.194  -5.770  0.00  0.00    +0.004 A 
ATOM     21  C   UNL     1      -3.042   0.837  -6.183  0.00  0.00    +0.001 A 
ENDBRANCH  10  12
BRANCH   2  22
ATOM     22  C   UNL     1       3.452   1.529   0.078  0.00  0.00    +0.251 C 
ATOM     23  O   UNL     1       3.664   2.735   0.165  0.00  0.00    -0.270 OA
ATOM     24  N   UNL     1       4.497   0.632  -0.003  0.00  0.00    -0.307 N 
ATOM     25  H   UNL     1       4.288  -0.326  -0.101  0.00  0.00    +0.149 HD
BRANCH  24  26
ATOM     26  C   UNL     1       5.893   1.037   0.048  0.00  0.00    +0.139 C 
BRANCH  26  27
ATOM     27  C   UNL     1       6.649   0.655  -1.195  0.00  0.00    -0.030 A 
ATOM     28  C   UNL     1       6.242   1.121  -2.455  0.00  0.00    +0.005 A 
ATOM     29  C   UNL     1       7.821  -0.113  -1.111  0.00  0.00    +0.005 A 
ATOM     30  C   UNL     1       6.981   0.817  -3.601  0.00  0.00    +0.000 A 
ATOM     31  C   UNL     1       8.561  -0.413  -2.257  0.00  0.00    +0.000 A 
ATOM     32  C   UNL     1       8.141   0.051  -3.502  0.00  0.00    +0.000 A 
ENDBRANCH  26  27
ENDBRANCH  24  26
ENDBRANCH   2  22
TORSDOF 4
