REMARK  Name = CTX-1020459
REMARK  7 active torsions:
REMARK  status: ('A' for Active; 'I' for Inactive)
REMARK    1  A    between atoms: C_8  and  C_11
REMARK    2  A    between atoms: C_10  and  C_12
REMARK    3  A    between atoms: C_21  and  C_23
REMARK    4  A    between atoms: N_26  and  C_27
REMARK    5  A    between atoms: C_27  and  C_28
REMARK    6  A    between atoms: C_33  and  N_34
REMARK    7  A    between atoms: N_39  and  C_40
REMARK                            x       y       z     vdW  Elec       q    Type
REMARK                         _______ _______ _______ _____ _____    ______ ____
ROOT
ATOM      1  C   UNL     1       8.783  -3.001   0.204  0.00  0.00    +0.283 C 
ATOM      2  O   UNL     1       8.539  -4.212   0.292  0.00  0.00    -0.267 OA
ATOM      3  N   UNL     1      10.294  -2.746   0.215  0.00  0.00    -0.289 N 
ATOM      4  C   UNL     1      11.442  -3.797   0.242  0.00  0.00    +0.163 C 
ATOM      5  C   UNL     1      10.671  -1.417   0.052  0.00  0.00    +0.113 C 
ATOM      6  C   UNL     1      12.980  -3.259   0.267  0.00  0.00    +0.063 A 
ATOM      7  C   UNL     1      12.078  -0.888   0.080  0.00  0.00    +0.056 C 
ATOM      8  N   UNL     1      14.112  -4.087   0.379  0.00  0.00    -0.245 NA
ATOM      9  C   UNL     1      13.170  -1.877   0.188  0.00  0.00    -0.023 A 
ATOM     10  C   UNL     1      15.379  -3.469   0.468  0.00  0.00    +0.126 A 
ATOM     11  C   UNL     1      14.446  -1.306   0.251  0.00  0.00    +0.008 A 
ATOM     12  C   UNL     1      15.549  -2.096   0.429  0.00  0.00    +0.033 A 
ENDROOT
BRANCH   1  22
ATOM     13 CL   UNL     1       1.214  -0.214  -0.025  0.00  0.00    -0.084 Cl
ATOM     14  C   UNL     1       2.938  -0.166  -0.021  0.00  0.00    +0.042 A 
ATOM     15  C   UNL     1       3.684  -1.359   0.047  0.00  0.00    +0.032 A 
ATOM     16  C   UNL     1       3.570   1.058  -0.080  0.00  0.00    +0.023 A 
ATOM     17  C   UNL     1       5.127  -1.392   0.055  0.00  0.00    +0.025 A 
ATOM     18  C   UNL     1       5.010   1.059  -0.069  0.00  0.00    +0.048 A 
ATOM     19  C   UNL     1       5.815  -0.179   0.003  0.00  0.00    +0.136 A 
ATOM     20  C   UNL     1       6.097  -2.466   0.115  0.00  0.00    +0.008 A 
ATOM     21  O   UNL     1       7.261  -0.526   0.039  0.00  0.00    -0.450 OA
ATOM     22  C   UNL     1       7.441  -1.989   0.117  0.00  0.00    +0.194 A 
ATOM     23  C   UNL     1       5.658  -3.891   0.162  0.00  0.00    +0.048 C 
ENDBRANCH   1  22
BRANCH  10  24
ATOM     24  C   UNL     1      16.757  -4.177   0.569  0.00  0.00    +0.263 C 
ATOM     25  O   UNL     1      17.762  -3.471   0.674  0.00  0.00    -0.269 OA
ATOM     26  N   UNL     1      16.854  -5.492   0.549  0.00  0.00    -0.306 N 
ATOM     27  H   UNL     1      16.026  -6.022   0.593  0.00  0.00    +0.149 HD
BRANCH  26  28
ATOM     28  C   UNL     1      18.142  -6.207   0.465  0.00  0.00    +0.140 C 
BRANCH  28  29
ATOM     29  C   UNL     1      18.314  -7.205   1.580  0.00  0.00    -0.030 A 
ATOM     30  C   UNL     1      17.907  -8.538   1.425  0.00  0.00    +0.007 A 
ATOM     31  C   UNL     1      18.833  -6.816   2.810  0.00  0.00    +0.007 A 
ATOM     32  C   UNL     1      17.977  -9.422   2.511  0.00  0.00    +0.023 A 
ATOM     33  C   UNL     1      18.946  -7.724   3.869  0.00  0.00    +0.023 A 
ATOM     34  C   UNL     1      18.494  -9.039   3.762  0.00  0.00    +0.030 A 
BRANCH  34  35
ATOM     35  N   UNL     1      18.555  -9.929   4.813  0.00  0.00    -0.333 N 
ATOM     36  C   UNL     1      19.570  -9.895   5.949  0.00  0.00    +0.086 C 
ATOM     37  C   UNL     1      17.427 -10.831   5.101  0.00  0.00    +0.086 C 
ATOM     38  C   UNL     1      20.015 -11.293   6.314  0.00  0.00    -0.060 C 
ATOM     39  C   UNL     1      17.943 -12.204   5.590  0.00  0.00    -0.060 C 
ATOM     40  N   UNL     1      18.878 -12.097   6.730  0.00  0.00    +0.380 N 
ATOM     41  C   UNL     1      19.299 -13.415   7.193  0.00  0.00    -0.096 C 
ATOM     42  H   UNL     1      18.413 -11.646   7.518  0.00  0.00    -0.082 HD
ENDBRANCH  34  35
ENDBRANCH  28  29
ENDBRANCH  26  28
ENDBRANCH  10  24
TORSDOF 5
