REMARK  Name = CTX-1020458
REMARK  8 active torsions:
REMARK  status: ('A' for Active; 'I' for Inactive)
REMARK    1  A    between atoms: C_2  and  C_4
REMARK    2  A    between atoms: N_3  and  C_5
REMARK    3  A    between atoms: C_5  and  C_8
REMARK    4  A    between atoms: C_19  and  N_22
REMARK    5  A    between atoms: C_21  and  C_24
REMARK    6  A    between atoms: C_28  and  C_33
REMARK    7  A    between atoms: N_34  and  C_37
REMARK    8  A    between atoms: C_38  and  C_40
REMARK                            x       y       z     vdW  Elec       q    Type
REMARK                         _______ _______ _______ _____ _____    ______ ____
ROOT
ATOM      1  C   UNL     1       3.101  -0.988   0.766  0.00  0.00    +0.126 A 
ATOM      2  N   UNL     1       4.214  -0.530   1.414  0.00  0.00    -0.245 NA
ATOM      3  C   UNL     1       2.672  -2.307   0.802  0.00  0.00    +0.033 A 
ATOM      4  C   UNL     1       4.925  -1.444   2.147  0.00  0.00    +0.063 A 
ATOM      5  C   UNL     1       3.425  -3.231   1.512  0.00  0.00    +0.008 A 
ATOM      6  C   UNL     1       4.580  -2.807   2.188  0.00  0.00    -0.023 A 
ATOM      7  C   UNL     1       6.130  -0.938   2.940  0.00  0.00    +0.163 C 
ATOM      8  C   UNL     1       5.365  -3.802   2.997  0.00  0.00    +0.056 C 
ATOM      9  N   UNL     1       6.607  -1.895   3.945  0.00  0.00    -0.289 N 
ATOM     10  C   UNL     1       6.710  -3.268   3.484  0.00  0.00    +0.113 C 
ATOM     11  C   UNL     1       7.218  -1.438   5.122  0.00  0.00    +0.283 C 
ATOM     12  O   UNL     1       7.610  -0.275   5.220  0.00  0.00    -0.267 OA
ENDROOT
BRANCH  11  13
ATOM     13  C   UNL     1       7.154  -2.347   6.304  0.00  0.00    +0.194 A 
ATOM     14  O   UNL     1       6.025  -3.169   6.273  0.00  0.00    -0.450 OA
ATOM     15  C   UNL     1       7.256  -2.008   7.667  0.00  0.00    +0.008 A 
ATOM     16  C   UNL     1       5.177  -2.529   7.130  0.00  0.00    +0.136 A 
ATOM     17  C   UNL     1       5.906  -1.720   7.986  0.00  0.00    +0.024 A 
ATOM     18  C   UNL     1       8.414  -1.921   8.580  0.00  0.00    +0.048 C 
ATOM     19  C   UNL     1       3.795  -2.624   7.092  0.00  0.00    +0.050 A 
ATOM     20  C   UNL     1       5.217  -0.917   8.904  0.00  0.00    +0.012 A 
ATOM     21  C   UNL     1       3.120  -1.726   7.922  0.00  0.00    -0.047 A 
ATOM     22  C   UNL     1       3.814  -0.888   8.806  0.00  0.00    +0.004 A 
ATOM     23  C   UNL     1       1.627  -1.601   7.811  0.00  0.00    +0.044 C 
ENDBRANCH  11  13
BRANCH   1  25
ATOM     24  O   UNL     1       1.257  -0.369  -0.599  0.00  0.00    -0.269 OA
ATOM     25  C   UNL     1       2.291  -0.010  -0.037  0.00  0.00    +0.263 C 
ATOM     26  N   UNL     1       2.771   1.282  -0.102  0.00  0.00    -0.306 N 
ATOM     27  H   UNL     1       3.598   1.510   0.381  0.00  0.00    +0.149 HD
BRANCH  26  28
ATOM     28  C   UNL     1       2.094   2.309  -0.861  0.00  0.00    +0.140 C 
BRANCH  28  29
ATOM     29  C   UNL     1       2.957   2.871  -1.958  0.00  0.00    -0.030 A 
ATOM     30  C   UNL     1       3.459   2.037  -2.959  0.00  0.00    +0.007 A 
ATOM     31  C   UNL     1       3.237   4.241  -2.031  0.00  0.00    +0.007 A 
ATOM     32  C   UNL     1       4.267   2.555  -3.975  0.00  0.00    +0.023 A 
ATOM     33  C   UNL     1       4.039   4.753  -3.062  0.00  0.00    +0.023 A 
ATOM     34  C   UNL     1       4.589   3.920  -4.040  0.00  0.00    +0.030 A 
BRANCH  34  35
ATOM     35  N   UNL     1       5.359   4.382  -5.092  0.00  0.00    -0.333 N 
ATOM     36  C   UNL     1       5.245   5.765  -5.568  0.00  0.00    +0.086 C 
ATOM     37  C   UNL     1       6.707   3.816  -5.278  0.00  0.00    +0.086 C 
ATOM     38  C   UNL     1       5.619   5.797  -7.068  0.00  0.00    -0.060 C 
ATOM     39  C   UNL     1       7.082   3.889  -6.778  0.00  0.00    -0.060 C 
ATOM     40  N   UNL     1       6.975   5.260  -7.336  0.00  0.00    +0.380 N 
ATOM     41  C   UNL     1       7.237   5.248  -8.774  0.00  0.00    -0.096 C 
ATOM     42  H   UNL     1       7.670   5.856  -6.888  0.00  0.00    -0.082 HD
ENDBRANCH  34  35
ENDBRANCH  28  29
ENDBRANCH  26  28
ENDBRANCH   1  25
TORSDOF 5
