REMARK  Name = CTX-1020520
REMARK  8 active torsions:
REMARK  status: ('A' for Active; 'I' for Inactive)
REMARK    1  A    between atoms: C_2  and  C_4
REMARK    2  A    between atoms: N_3  and  C_5
REMARK    3  A    between atoms: C_5  and  C_8
REMARK    4  A    between atoms: C_10  and  N_15
REMARK    5  A    between atoms: C_22  and  N_27
REMARK    6  A    between atoms: C_24  and  C_29
REMARK    7  A    between atoms: C_33  and  C_38
REMARK    8  A    between atoms: N_39  and  C_42
REMARK                            x       y       z     vdW  Elec       q    Type
REMARK                         _______ _______ _______ _____ _____    ______ ____
ROOT
ATOM      1  C   UNL     1       3.233  -1.067   0.556  0.00  0.00    +0.128 A 
ATOM      2  N   UNL     1       4.306  -0.621   1.261  0.00  0.00    -0.245 NA
ATOM      3  C   UNL     1       2.815  -2.390   0.583  0.00  0.00    +0.061 A 
ATOM      4  C   UNL     1       5.001  -1.508   2.030  0.00  0.00    +0.065 A 
ATOM      5  C   UNL     1       3.526  -3.308   1.365  0.00  0.00    +0.072 A 
ATOM      6  C   UNL     1       4.659  -2.874   2.095  0.00  0.00    +0.002 A 
ATOM      7  C   UNL     1       6.209  -0.947   2.795  0.00  0.00    +0.163 C 
ATOM      8  C   UNL     1       5.498  -3.814   2.934  0.00  0.00    +0.058 C 
ATOM      9  N   UNL     1       6.780  -1.891   3.753  0.00  0.00    -0.289 N 
ATOM     10  C   UNL     1       6.872  -3.262   3.295  0.00  0.00    +0.113 C 
ATOM     11  C   UNL     1       7.390  -1.452   4.934  0.00  0.00    +0.283 C 
ATOM     12  O   UNL     1       7.878  -0.326   5.022  0.00  0.00    -0.267 OA
ENDROOT
BRANCH  11  13
ATOM     13  C   UNL     1       7.170  -2.311   6.106  0.00  0.00    +0.194 A 
ATOM     14  O   UNL     1       6.025  -3.077   6.045  0.00  0.00    -0.450 OA
ATOM     15  C   UNL     1       7.461  -2.144   7.462  0.00  0.00    +0.008 A 
ATOM     16  C   UNL     1       5.338  -2.766   7.166  0.00  0.00    +0.136 A 
ATOM     17  C   UNL     1       6.160  -2.071   8.043  0.00  0.00    +0.024 A 
ATOM     18  C   UNL     1       8.747  -1.970   8.175  0.00  0.00    +0.048 C 
ATOM     19  C   UNL     1       3.995  -3.028   7.363  0.00  0.00    +0.047 A 
ATOM     20  C   UNL     1       5.581  -1.519   9.197  0.00  0.00    +0.012 A 
ATOM     21  C   UNL     1       3.425  -2.429   8.487  0.00  0.00    +0.004 A 
ATOM     22  C   UNL     1       4.197  -1.667   9.373  0.00  0.00    +0.001 A 
ENDBRANCH  11  13
BRANCH   5  23
ATOM     23  N   UNL     1       3.034  -4.652   1.417  0.00  0.00    -0.239 N 
ATOM     24  N   UNL     1       3.246  -5.453   2.491  0.00  0.00    -0.175 NA
ATOM     25  C   UNL     1       2.269  -5.298   0.474  0.00  0.00    +0.114 A 
ATOM     26  C   UNL     1       2.548  -6.554   2.235  0.00  0.00    +0.135 A 
ATOM     27  C   UNL     1       1.934  -6.527   0.980  0.00  0.00    +0.041 A 
ENDBRANCH   5  23
BRANCH   1  29
ATOM     28  O   UNL     1       2.450   1.145   0.109  0.00  0.00    -0.269 OA
ATOM     29  C   UNL     1       2.445  -0.035  -0.223  0.00  0.00    +0.263 C 
ATOM     30  N   UNL     1       1.714  -0.498  -1.311  0.00  0.00    -0.306 N 
ATOM     31  H   UNL     1       1.769  -1.452  -1.548  0.00  0.00    +0.149 HD
BRANCH  30  32
ATOM     32  C   UNL     1       0.871   0.372  -2.110  0.00  0.00    +0.140 C 
BRANCH  32  33
ATOM     33  C   UNL     1      -0.549  -0.138  -2.163  0.00  0.00    -0.030 A 
ATOM     34  C   UNL     1      -1.294  -0.269  -0.988  0.00  0.00    +0.007 A 
ATOM     35  C   UNL     1      -1.178  -0.437  -3.378  0.00  0.00    +0.007 A 
ATOM     36  C   UNL     1      -2.624  -0.703  -1.031  0.00  0.00    +0.023 A 
ATOM     37  C   UNL     1      -2.518  -0.860  -3.411  0.00  0.00    +0.023 A 
ATOM     38  C   UNL     1      -3.269  -1.007  -2.240  0.00  0.00    +0.030 A 
BRANCH  38  39
ATOM     39  N   UNL     1      -4.609  -1.359  -2.225  0.00  0.00    -0.333 N 
ATOM     40  C   UNL     1      -5.475  -1.157  -3.396  0.00  0.00    +0.086 C 
ATOM     41  C   UNL     1      -5.019  -2.516  -1.406  0.00  0.00    +0.086 C 
ATOM     42  C   UNL     1      -6.939  -0.984  -2.915  0.00  0.00    -0.060 C 
ATOM     43  C   UNL     1      -6.490  -2.338  -0.960  0.00  0.00    -0.060 C 
ATOM     44  N   UNL     1      -7.420  -2.123  -2.095  0.00  0.00    +0.380 N 
ATOM     45  C   UNL     1      -8.770  -1.858  -1.600  0.00  0.00    -0.096 C 
ATOM     46  H   UNL     1      -7.449  -2.963  -2.671  0.00  0.00    -0.082 HD
ENDBRANCH  38  39
ENDBRANCH  32  33
ENDBRANCH  30  32
ENDBRANCH   1  29
TORSDOF 6
