REMARK  Name = CTX-1020842
REMARK  8 active torsions:
REMARK  status: ('A' for Active; 'I' for Inactive)
REMARK    1  A    between atoms: C_2  and  C_4
REMARK    2  A    between atoms: N_9  and  C_12
REMARK    3  A    between atoms: C_12  and  C_14
REMARK    4  A    between atoms: C_15  and  C_19
REMARK    5  A    between atoms: C_23  and  O_26
REMARK    6  A    between atoms: C_24  and  N_28
REMARK    7  A    between atoms: O_26  and  C_30
REMARK    8  A    between atoms: N_38  and  C_39
REMARK                            x       y       z     vdW  Elec       q    Type
REMARK                         _______ _______ _______ _____ _____    ______ ____
ROOT
ATOM      1  S   UNL     1       1.699  -0.830   0.071  0.00  0.00    -0.088 S 
ATOM      2  C   UNL     1       1.938   0.873   0.087  0.00  0.00    +0.074 A 
ATOM      3  C   UNL     1       0.003  -0.665  -0.003  0.00  0.00    -0.003 A 
ATOM      4  C   UNL     1       0.713   1.534   0.060  0.00  0.00    +0.026 A 
ATOM      5  C   UNL     1      -0.417   0.645  -0.010  0.00  0.00    -0.019 A 
ATOM      6  C   UNL     1      -0.924  -1.841  -0.101  0.00  0.00    +0.062 C 
ATOM      7  C   UNL     1      -1.883   1.016  -0.085  0.00  0.00    +0.144 C 
ATOM      8  C   UNL     1      -2.362  -1.414   0.250  0.00  0.00    +0.113 C 
ATOM      9  N   UNL     1      -2.722  -0.173  -0.429  0.00  0.00    -0.290 N 
ATOM     10  C   UNL     1      -3.972   0.076  -1.019  0.00  0.00    +0.286 C 
ATOM     11  O   UNL     1      -4.247   1.264  -1.246  0.00  0.00    -0.266 OA
ENDROOT
BRANCH  10  12
ATOM     12  C   UNL     1      -5.017  -0.954  -1.273  0.00  0.00    +0.232 A 
ATOM     13  O   UNL     1      -4.839  -2.219  -1.933  0.00  0.00    -0.446 OA
ATOM     14  C   UNL     1      -6.381  -0.720  -1.198  0.00  0.00    +0.178 A 
ATOM     15  C   UNL     1      -6.106  -2.631  -2.436  0.00  0.00    +0.140 A 
ATOM     16  C   UNL     1      -6.997  -1.663  -2.036  0.00  0.00    +0.063 A 
ATOM     17  C   UNL     1      -6.635  -3.734  -3.199  0.00  0.00    +0.047 A 
ATOM     18  C   UNL     1      -8.285  -1.748  -2.518  0.00  0.00    +0.015 A 
ATOM     19  C   UNL     1      -7.948  -3.675  -3.735  0.00  0.00    +0.004 A 
ATOM     20  C   UNL     1      -8.731  -2.605  -3.472  0.00  0.00    +0.001 A 
BRANCH  14  21
ATOM     21  O   UNL     1      -7.066   0.365  -0.746  0.00  0.00    -0.491 OA
ATOM     22  C   UNL     1      -6.715   0.842   0.544  0.00  0.00    +0.277 C 
ENDBRANCH  14  21
ENDBRANCH  10  12
BRANCH   2  23
ATOM     23  C   UNL     1       3.276   1.482   0.099  0.00  0.00    +0.251 C 
ATOM     24  O   UNL     1       3.432   2.707   0.060  0.00  0.00    -0.270 OA
ATOM     25  N   UNL     1       4.362   0.626   0.133  0.00  0.00    -0.307 N 
ATOM     26  H   UNL     1       4.196  -0.339   0.237  0.00  0.00    +0.149 HD
BRANCH  25  27
ATOM     27  C   UNL     1       5.731   1.080   0.025  0.00  0.00    +0.139 C 
BRANCH  27  28
ATOM     28  C   UNL     1       6.422   1.170   1.361  0.00  0.00    -0.030 A 
ATOM     29  C   UNL     1       7.076   0.060   1.902  0.00  0.00    +0.007 A 
ATOM     30  C   UNL     1       6.434   2.366   2.094  0.00  0.00    +0.007 A 
ATOM     31  C   UNL     1       7.699   0.148   3.151  0.00  0.00    +0.023 A 
ATOM     32  C   UNL     1       7.073   2.447   3.344  0.00  0.00    +0.023 A 
ATOM     33  C   UNL     1       7.697   1.332   3.909  0.00  0.00    +0.030 A 
BRANCH  33  34
ATOM     34  N   UNL     1       8.321   1.320   5.151  0.00  0.00    -0.333 N 
ATOM     35  C   UNL     1       8.820   2.558   5.777  0.00  0.00    +0.086 C 
ATOM     36  C   UNL     1       7.692   0.421   6.143  0.00  0.00    +0.086 C 
ATOM     37  C   UNL     1       9.838   2.184   6.902  0.00  0.00    -0.060 C 
ATOM     38  C   UNL     1       8.726   0.075   7.234  0.00  0.00    -0.060 C 
ATOM     39  N   UNL     1       9.276   1.280   7.891  0.00  0.00    +0.380 N 
ATOM     40  C   UNL     1      10.270   0.896   8.887  0.00  0.00    -0.096 C 
ATOM     41  H   UNL     1       8.523   1.775   8.369  0.00  0.00    -0.082 HD
ENDBRANCH  33  34
ENDBRANCH  27  28
ENDBRANCH  25  27
ENDBRANCH   2  23
TORSDOF 6
