REMARK  Name = CTX-1020517
REMARK  7 active torsions:
REMARK  status: ('A' for Active; 'I' for Inactive)
REMARK    1  A    between atoms: C_2  and  C_5
REMARK    2  A    between atoms: C_4  and  C_8
REMARK    3  A    between atoms: C_21  and  C_22
REMARK    4  A    between atoms: N_24  and  C_25
REMARK    5  A    between atoms: C_25  and  C_26
REMARK    6  A    between atoms: C_31  and  N_32
REMARK    7  A    between atoms: N_37  and  C_38
REMARK                            x       y       z     vdW  Elec       q    Type
REMARK                         _______ _______ _______ _____ _____    ______ ____
ROOT
ATOM      1  C   UNL     1       4.056   1.931   0.729  0.00  0.00    +0.254 C 
ATOM      2  O   UNL     1       4.091   2.015   1.960  0.00  0.00    -0.269 OA
ATOM      3  N   UNL     1       5.275   2.234  -0.026  0.00  0.00    -0.292 N 
ATOM      4  C   UNL     1       6.402   3.265   0.443  0.00  0.00    +0.144 C 
ATOM      5  C   UNL     1       5.750   0.951  -0.515  0.00  0.00    +0.113 C 
ATOM      6  C   UNL     1       7.901   2.798   0.155  0.00  0.00    -0.019 A 
ATOM      7  C   UNL     1       7.024   0.931  -1.279  0.00  0.00    +0.062 C 
ATOM      8  C   UNL     1       8.092   1.748  -0.683  0.00  0.00    -0.003 A 
ATOM      9  C   UNL     1       9.306   3.232   0.551  0.00  0.00    +0.026 A 
ATOM     10  S   UNL     1       9.656   1.387  -1.149  0.00  0.00    -0.088 S 
ATOM     11  C   UNL     1      10.276   2.272   0.180  0.00  0.00    +0.074 A 
ENDROOT
BRANCH   1  13
ATOM     12  S   UNL     1       2.161   2.099  -1.378  0.00  0.00    -0.083 S 
ATOM     13  C   UNL     1       2.826   1.320   0.019  0.00  0.00    +0.078 A 
ATOM     14  C   UNL     1       0.745   1.097  -1.450  0.00  0.00    +0.020 A 
ATOM     15  C   UNL     1       2.007   0.213   0.340  0.00  0.00    -0.024 A 
ATOM     16  C   UNL     1       0.781   0.109  -0.478  0.00  0.00    -0.007 A 
ATOM     17  C   UNL     1      -0.359   1.174  -2.351  0.00  0.00    +0.015 A 
ATOM     18  C   UNL     1       2.250  -0.830   1.387  0.00  0.00    +0.046 C 
ATOM     19  C   UNL     1      -0.313  -0.812  -0.416  0.00  0.00    +0.009 A 
ATOM     20  C   UNL     1      -1.435   0.273  -2.254  0.00  0.00    +0.001 A 
ATOM     21  C   UNL     1      -1.411  -0.722  -1.296  0.00  0.00    +0.001 A 
ENDBRANCH   1  13
BRANCH  11  22
ATOM     22  C   UNL     1      11.651   1.842   0.512  0.00  0.00    +0.251 C 
ATOM     23  O   UNL     1      12.672   2.513   0.386  0.00  0.00    -0.270 OA
ATOM     24  N   UNL     1      11.677   0.485   0.872  0.00  0.00    -0.307 N 
ATOM     25  H   UNL     1      10.833   0.129   1.233  0.00  0.00    +0.149 HD
BRANCH  24  26
ATOM     26  C   UNL     1      12.770  -0.471   0.789  0.00  0.00    +0.139 C 
BRANCH  26  27
ATOM     27  C   UNL     1      12.243  -1.905   0.644  0.00  0.00    -0.030 A 
ATOM     28  C   UNL     1      12.044  -2.483  -0.615  0.00  0.00    +0.007 A 
ATOM     29  C   UNL     1      11.878  -2.699   1.742  0.00  0.00    +0.007 A 
ATOM     30  C   UNL     1      11.485  -3.761  -0.755  0.00  0.00    +0.023 A 
ATOM     31  C   UNL     1      11.303  -3.990   1.579  0.00  0.00    +0.023 A 
ATOM     32  C   UNL     1      11.080  -4.557   0.318  0.00  0.00    +0.030 A 
BRANCH  32  33
ATOM     33  N   UNL     1      10.449  -5.767   0.162  0.00  0.00    -0.333 N 
ATOM     34  C   UNL     1      10.710  -6.686  -0.966  0.00  0.00    +0.086 C 
ATOM     35  C   UNL     1       9.471  -6.313   1.131  0.00  0.00    +0.086 C 
ATOM     36  C   UNL     1       9.381  -7.106  -1.649  0.00  0.00    -0.060 C 
ATOM     37  C   UNL     1       8.179  -6.788   0.404  0.00  0.00    -0.060 C 
ATOM     38  N   UNL     1       8.451  -7.744  -0.694  0.00  0.00    +0.380 N 
ATOM     39  C   UNL     1       7.219  -8.166  -1.357  0.00  0.00    -0.096 C 
ATOM     40  H   UNL     1       8.877  -8.588  -0.309  0.00  0.00    -0.082 HD
ENDBRANCH  32  33
ENDBRANCH  26  27
ENDBRANCH  24  26
ENDBRANCH  11  22
TORSDOF 5
