REMARK  Name = CTX-1020454
REMARK  7 active torsions:
REMARK  status: ('A' for Active; 'I' for Inactive)
REMARK    1  A    between atoms: C_8  and  C_11
REMARK    2  A    between atoms: C_9  and  C_12
REMARK    3  A    between atoms: C_21  and  C_23
REMARK    4  A    between atoms: N_26  and  C_27
REMARK    5  A    between atoms: C_27  and  C_28
REMARK    6  A    between atoms: C_33  and  N_34
REMARK    7  A    between atoms: N_39  and  C_40
REMARK                            x       y       z     vdW  Elec       q    Type
REMARK                         _______ _______ _______ _____ _____    ______ ____
ROOT
ATOM      1  C   UNL     1       3.879  -5.519  -0.863  0.00  0.00    +0.283 C 
ATOM      2  O   UNL     1       2.987  -5.572  -1.722  0.00  0.00    -0.267 OA
ATOM      3  N   UNL     1       4.894  -6.619  -0.862  0.00  0.00    -0.289 N 
ATOM      4  C   UNL     1       5.281  -7.942  -1.830  0.00  0.00    +0.163 C 
ATOM      5  C   UNL     1       5.252  -6.972   0.460  0.00  0.00    +0.113 C 
ATOM      6  C   UNL     1       6.050  -9.238  -0.965  0.00  0.00    +0.063 A 
ATOM      7  C   UNL     1       6.718  -7.323   0.470  0.00  0.00    +0.056 C 
ATOM      8  N   UNL     1       5.987 -10.633  -1.218  0.00  0.00    -0.245 NA
ATOM      9  C   UNL     1       6.694  -8.783   0.186  0.00  0.00    -0.023 A 
ATOM     10  C   UNL     1       6.460 -11.482  -0.182  0.00  0.00    +0.126 A 
ATOM     11  C   UNL     1       7.073  -9.650   1.216  0.00  0.00    +0.008 A 
ATOM     12  C   UNL     1       6.914 -10.999   1.041  0.00  0.00    +0.033 A 
ENDROOT
BRANCH   1  20
ATOM     13  F   UNL     1       6.630  -2.747   3.393  0.00  0.00    -0.202 F 
ATOM     14  C   UNL     1       5.340  -2.414   3.226  0.00  0.00    +0.166 A 
ATOM     15  C   UNL     1       4.595  -3.008   2.124  0.00  0.00    +0.171 A 
ATOM     16  C   UNL     1       4.741  -1.472   4.169  0.00  0.00    +0.042 A 
ATOM     17  O   UNL     1       4.947  -3.998   1.167  0.00  0.00    -0.447 OA
ATOM     18  C   UNL     1       3.288  -2.607   1.894  0.00  0.00    +0.027 A 
ATOM     19  C   UNL     1       3.426  -1.106   3.966  0.00  0.00    +0.004 A 
ATOM     20  C   UNL     1       3.837  -4.305   0.298  0.00  0.00    +0.194 A 
ATOM     21  C   UNL     1       2.841  -3.341   0.681  0.00  0.00    +0.008 A 
ATOM     22  C   UNL     1       2.756  -1.631   2.834  0.00  0.00    +0.012 A 
ATOM     23  C   UNL     1       1.513  -3.063   0.050  0.00  0.00    +0.048 C 
ENDBRANCH   1  20
BRANCH  10  24
ATOM     24  C   UNL     1       6.583 -13.036  -0.175  0.00  0.00    +0.263 C 
ATOM     25  O   UNL     1       6.932 -13.588   0.847  0.00  0.00    -0.269 OA
ATOM     26  N   UNL     1       6.353 -13.797  -1.299  0.00  0.00    -0.306 N 
ATOM     27  H   UNL     1       6.016 -13.359  -2.114  0.00  0.00    +0.149 HD
BRANCH  26  28
ATOM     28  C   UNL     1       6.596 -15.245  -1.314  0.00  0.00    +0.140 C 
BRANCH  28  29
ATOM     29  C   UNL     1       5.368 -16.034  -1.698  0.00  0.00    -0.030 A 
ATOM     30  C   UNL     1       5.127 -16.388  -3.026  0.00  0.00    +0.007 A 
ATOM     31  C   UNL     1       4.422 -16.409  -0.740  0.00  0.00    +0.007 A 
ATOM     32  C   UNL     1       4.007 -17.153  -3.370  0.00  0.00    +0.023 A 
ATOM     33  C   UNL     1       3.256 -17.088  -1.117  0.00  0.00    +0.023 A 
ATOM     34  C   UNL     1       3.058 -17.563  -2.422  0.00  0.00    +0.030 A 
BRANCH  34  35
ATOM     35  N   UNL     1       2.003 -18.385  -2.752  0.00  0.00    -0.333 N 
ATOM     36  C   UNL     1       1.391 -19.297  -1.769  0.00  0.00    +0.086 C 
ATOM     37  C   UNL     1       1.414 -18.464  -4.103  0.00  0.00    +0.086 C 
ATOM     38  C   UNL     1       1.241 -20.726  -2.369  0.00  0.00    -0.060 C 
ATOM     39  C   UNL     1       1.254 -19.937  -4.562  0.00  0.00    -0.060 C 
ATOM     40  N   UNL     1       0.489 -20.720  -3.613  0.00  0.00    +0.380 N 
ATOM     41  C   UNL     1       0.266 -22.075  -4.106  0.00  0.00    -0.096 C 
ATOM     42  H   UNL     1      -0.436 -20.315  -3.470  0.00  0.00    -0.082 HD
ENDBRANCH  34  35
ENDBRANCH  28  29
ENDBRANCH  26  28
ENDBRANCH  10  24
TORSDOF 5
