MODEL 1
REMARK VINA RESULT:   -11.877      0.000      0.000
REMARK INTER + INTRA:         -15.555
REMARK INTER:                 -16.042
REMARK INTRA:                   0.487
REMARK UNBOUND:                 0.487
REMARK  Name = CTX-1020842
REMARK  8 active torsions:
REMARK  status: ('A' for Active; 'I' for Inactive)
REMARK    1  A    between atoms: C_2  and  C_4
REMARK    2  A    between atoms: N_9  and  C_12
REMARK    3  A    between atoms: C_12  and  C_14
REMARK    4  A    between atoms: C_15  and  C_19
REMARK    5  A    between atoms: C_23  and  O_26
REMARK    6  A    between atoms: C_24  and  N_28
REMARK    7  A    between atoms: O_26  and  C_30
REMARK    8  A    between atoms: N_38  and  C_39
REMARK                            x       y       z     vdW  Elec       q    Type
REMARK                         _______ _______ _______ _____ _____    ______ ____
ROOT
ATOM      1  S   UNL     1      28.132   5.114 -23.485  0.00  0.00    -0.088 S 
ATOM      2  C   UNL     1      29.519   4.927 -22.486  0.00  0.00    +0.074 A 
ATOM      3  C   UNL     1      27.389   3.721 -22.839  0.00  0.00    -0.003 A 
ATOM      4  C   UNL     1      29.397   3.788 -21.695  0.00  0.00    +0.026 A 
ATOM      5  C   UNL     1      28.151   3.091 -21.883  0.00  0.00    -0.019 A 
ATOM      6  C   UNL     1      26.018   3.269 -23.248  0.00  0.00    +0.062 C 
ATOM      7  C   UNL     1      27.673   1.842 -21.173  0.00  0.00    +0.144 C 
ATOM      8  C   UNL     1      25.790   1.808 -22.816  0.00  0.00    +0.113 C 
ATOM      9  N   UNL     1      26.223   1.594 -21.438  0.00  0.00    -0.290 N 
ATOM     10  C   UNL     1      25.524   0.820 -20.498  0.00  0.00    +0.286 C 
ATOM     11  O   UNL     1      26.166   0.450 -19.503  0.00  0.00    -0.266 OA
ENDROOT
BRANCH  10  12
ATOM     12  C   UNL     1      24.132   0.320 -20.667  0.00  0.00    +0.232 A 
ATOM     13  O   UNL     1      23.144   0.150 -19.636  0.00  0.00    -0.446 OA
ATOM     14  C   UNL     1      23.674  -0.356 -21.788  0.00  0.00    +0.178 A 
ATOM     15  C   UNL     1      22.197  -0.811 -20.093  0.00  0.00    +0.140 A 
ATOM     16  C   UNL     1      22.594  -1.147 -21.366  0.00  0.00    +0.063 A 
ATOM     17  C   UNL     1      21.016  -1.459 -19.581  0.00  0.00    +0.047 A 
ATOM     18  C   UNL     1      21.921  -2.176 -21.989  0.00  0.00    +0.015 A 
ATOM     19  C   UNL     1      20.460  -2.579 -20.254  0.00  0.00    +0.004 A 
ATOM     20  C   UNL     1      21.004  -2.998 -21.418  0.00  0.00    +0.001 A 
BRANCH  14  21
ATOM     21  O   UNL     1      24.269  -0.572 -22.992  0.00  0.00    -0.491 OA
ATOM     22  C   UNL     1      23.538  -0.169 -24.140  0.00  0.00    +0.277 C 
ENDBRANCH  14  21
ENDBRANCH  10  12
BRANCH   2  23
ATOM     23  C   UNL     1      30.633   5.887 -22.493  0.00  0.00    +0.251 C 
ATOM     24  O   UNL     1      31.787   5.546 -22.214  0.00  0.00    -0.270 OA
ATOM     25  N   UNL     1      30.334   7.202 -22.803  0.00  0.00    -0.307 N 
ATOM     26  H   UNL     1      29.418   7.420 -23.090  0.00  0.00    +0.149 HD
BRANCH  25  27
ATOM     27  C   UNL     1      31.304   8.272 -22.729  0.00  0.00    +0.139 C 
BRANCH  27  28
ATOM     28  C   UNL     1      32.326   8.210 -23.834  0.00  0.00    -0.030 A 
ATOM     29  C   UNL     1      33.660   8.547 -23.591  0.00  0.00    +0.007 A 
ATOM     30  C   UNL     1      31.972   7.807 -25.130  0.00  0.00    +0.007 A 
ATOM     31  C   UNL     1      34.599   8.504 -24.627  0.00  0.00    +0.023 A 
ATOM     32  C   UNL     1      32.926   7.756 -26.162  0.00  0.00    +0.023 A 
ATOM     33  C   UNL     1      34.254   8.128 -25.937  0.00  0.00    +0.030 A 
BRANCH  33  34
ATOM     34  N   UNL     1      35.248   8.137 -26.909  0.00  0.00    -0.333 N 
ATOM     35  C   UNL     1      35.013   8.706 -28.249  0.00  0.00    +0.086 C 
ATOM     36  C   UNL     1      36.596   8.471 -26.401  0.00  0.00    +0.086 C 
ATOM     37  C   UNL     1      36.114   8.177 -29.224  0.00  0.00    -0.060 C 
ATOM     38  C   UNL     1      37.652   7.934 -27.389  0.00  0.00    -0.060 C 
ATOM     39  N   UNL     1      37.461   8.459 -28.758  0.00  0.00    +0.380 N 
ATOM     40  C   UNL     1      38.464   7.893 -29.654  0.00  0.00    -0.096 C 
ATOM     41  H   UNL     1      37.579   9.472 -28.749  0.00  0.00    -0.082 HD
ENDBRANCH  33  34
ENDBRANCH  27  28
ENDBRANCH  25  27
ENDBRANCH   2  23
TORSDOF 6
ENDMDL
MODEL 2
REMARK VINA RESULT:   -11.777      3.926      5.432
REMARK INTER + INTRA:         -15.420
REMARK INTER:                 -14.689
REMARK INTRA:                  -0.731
REMARK UNBOUND:                 0.487
REMARK  Name = CTX-1020842
REMARK  8 active torsions:
REMARK  status: ('A' for Active; 'I' for Inactive)
REMARK    1  A    between atoms: C_2  and  C_4
REMARK    2  A    between atoms: N_9  and  C_12
REMARK    3  A    between atoms: C_12  and  C_14
REMARK    4  A    between atoms: C_15  and  C_19
REMARK    5  A    between atoms: C_23  and  O_26
REMARK    6  A    between atoms: C_24  and  N_28
REMARK    7  A    between atoms: O_26  and  C_30
REMARK    8  A    between atoms: N_38  and  C_39
REMARK                            x       y       z     vdW  Elec       q    Type
REMARK                         _______ _______ _______ _____ _____    ______ ____
ROOT
ATOM      1  S   UNL     1      27.079   2.201 -18.490  0.00  0.00    -0.088 S 
ATOM      2  C   UNL     1      27.734   3.430 -17.481  0.00  0.00    +0.074 A 
ATOM      3  C   UNL     1      25.551   2.296 -17.738  0.00  0.00    -0.003 A 
ATOM      4  C   UNL     1      26.777   3.871 -16.572  0.00  0.00    +0.026 A 
ATOM      5  C   UNL     1      25.499   3.228 -16.728  0.00  0.00    -0.019 A 
ATOM      6  C   UNL     1      24.376   1.474 -18.180  0.00  0.00    +0.062 C 
ATOM      7  C   UNL     1      24.232   3.482 -15.938  0.00  0.00    +0.144 C 
ATOM      8  C   UNL     1      23.287   1.476 -17.090  0.00  0.00    +0.113 C 
ATOM      9  N   UNL     1      23.054   2.825 -16.582  0.00  0.00    -0.290 N 
ATOM     10  C   UNL     1      21.787   3.356 -16.292  0.00  0.00    +0.286 C 
ATOM     11  O   UNL     1      21.765   4.359 -15.562  0.00  0.00    -0.266 OA
ENDROOT
BRANCH  10  12
ATOM     12  C   UNL     1      20.491   2.742 -16.692  0.00  0.00    +0.232 A 
ATOM     13  O   UNL     1      19.670   1.867 -15.900  0.00  0.00    -0.446 OA
ATOM     14  C   UNL     1      20.033   2.662 -17.998  0.00  0.00    +0.178 A 
ATOM     15  C   UNL     1      18.857   1.108 -16.789  0.00  0.00    +0.140 A 
ATOM     16  C   UNL     1      19.159   1.564 -18.050  0.00  0.00    +0.063 A 
ATOM     17  C   UNL     1      17.869   0.063 -16.689  0.00  0.00    +0.047 A 
ATOM     18  C   UNL     1      18.608   0.890 -19.118  0.00  0.00    +0.015 A 
ATOM     19  C   UNL     1      17.442  -0.637 -17.848  0.00  0.00    +0.004 A 
ATOM     20  C   UNL     1      17.915  -0.276 -19.061  0.00  0.00    +0.001 A 
BRANCH  14  21
ATOM     21  O   UNL     1      20.518   3.223 -19.139  0.00  0.00    -0.491 OA
ATOM     22  C   UNL     1      21.388   2.419 -19.919  0.00  0.00    +0.277 C 
ENDBRANCH  14  21
ENDBRANCH  10  12
BRANCH   2  23
ATOM     23  C   UNL     1      29.112   3.920 -17.628  0.00  0.00    +0.251 C 
ATOM     24  O   UNL     1      30.086   3.170 -17.500  0.00  0.00    -0.270 OA
ATOM     25  N   UNL     1      29.281   5.267 -17.895  0.00  0.00    -0.307 N 
ATOM     26  H   UNL     1      28.481   5.816 -18.062  0.00  0.00    +0.149 HD
BRANCH  25  27
ATOM     27  C   UNL     1      30.577   5.908 -17.943  0.00  0.00    +0.139 C 
BRANCH  27  28
ATOM     28  C   UNL     1      31.024   6.214 -19.349  0.00  0.00    -0.030 A 
ATOM     29  C   UNL     1      32.361   6.514 -19.623  0.00  0.00    +0.007 A 
ATOM     30  C   UNL     1      30.117   6.200 -20.419  0.00  0.00    +0.007 A 
ATOM     31  C   UNL     1      32.763   6.815 -20.928  0.00  0.00    +0.023 A 
ATOM     32  C   UNL     1      30.534   6.493 -21.730  0.00  0.00    +0.023 A 
ATOM     33  C   UNL     1      31.861   6.831 -22.007  0.00  0.00    +0.030 A 
BRANCH  33  34
ATOM     34  N   UNL     1      32.346   7.164 -23.266  0.00  0.00    -0.333 N 
ATOM     35  C   UNL     1      31.460   7.689 -24.321  0.00  0.00    +0.086 C 
ATOM     36  C   UNL     1      33.653   7.857 -23.254  0.00  0.00    +0.086 C 
ATOM     37  C   UNL     1      32.173   7.540 -25.704  0.00  0.00    -0.060 C 
ATOM     38  C   UNL     1      34.324   7.687 -24.633  0.00  0.00    -0.060 C 
ATOM     39  N   UNL     1      33.475   8.183 -25.737  0.00  0.00    +0.380 N 
ATOM     40  C   UNL     1      34.143   7.967 -27.016  0.00  0.00    -0.096 C 
ATOM     41  H   UNL     1      33.327   9.186 -25.622  0.00  0.00    -0.082 HD
ENDBRANCH  33  34
ENDBRANCH  27  28
ENDBRANCH  25  27
ENDBRANCH   2  23
TORSDOF 6
ENDMDL
MODEL 3
REMARK VINA RESULT:   -11.264      3.083     14.328
REMARK INTER + INTRA:         -14.728
REMARK INTER:                 -14.319
REMARK INTRA:                  -0.409
REMARK UNBOUND:                 0.487
REMARK  Name = CTX-1020842
REMARK  8 active torsions:
REMARK  status: ('A' for Active; 'I' for Inactive)
REMARK    1  A    between atoms: C_2  and  C_4
REMARK    2  A    between atoms: N_9  and  C_12
REMARK    3  A    between atoms: C_12  and  C_14
REMARK    4  A    between atoms: C_15  and  C_19
REMARK    5  A    between atoms: C_23  and  O_26
REMARK    6  A    between atoms: C_24  and  N_28
REMARK    7  A    between atoms: O_26  and  C_30
REMARK    8  A    between atoms: N_38  and  C_39
REMARK                            x       y       z     vdW  Elec       q    Type
REMARK                         _______ _______ _______ _____ _____    ______ ____
ROOT
ATOM      1  S   UNL     1      25.603   2.690 -24.469  0.00  0.00    -0.088 S 
ATOM      2  C   UNL     1      25.653   1.549 -23.182  0.00  0.00    +0.074 A 
ATOM      3  C   UNL     1      26.881   3.604 -23.805  0.00  0.00    -0.003 A 
ATOM      4  C   UNL     1      26.631   1.905 -22.258  0.00  0.00    +0.026 A 
ATOM      5  C   UNL     1      27.361   3.091 -22.623  0.00  0.00    -0.019 A 
ATOM      6  C   UNL     1      27.448   4.818 -24.481  0.00  0.00    +0.062 C 
ATOM      7  C   UNL     1      28.505   3.741 -21.873  0.00  0.00    +0.144 C 
ATOM      8  C   UNL     1      28.284   5.640 -23.482  0.00  0.00    +0.113 C 
ATOM      9  N   UNL     1      29.177   4.780 -22.712  0.00  0.00    -0.290 N 
ATOM     10  C   UNL     1      30.506   5.100 -22.390  0.00  0.00    +0.286 C 
ATOM     11  O   UNL     1      31.019   4.453 -21.464  0.00  0.00    -0.266 OA
ENDROOT
BRANCH  10  12
ATOM     12  C   UNL     1      31.284   6.219 -22.988  0.00  0.00    +0.232 A 
ATOM     13  O   UNL     1      31.008   6.897 -24.226  0.00  0.00    -0.446 OA
ATOM     14  C   UNL     1      32.570   6.570 -22.608  0.00  0.00    +0.178 A 
ATOM     15  C   UNL     1      32.223   7.485 -24.682  0.00  0.00    +0.140 A 
ATOM     16  C   UNL     1      33.158   7.202 -23.715  0.00  0.00    +0.063 A 
ATOM     17  C   UNL     1      32.668   8.248 -25.821  0.00  0.00    +0.047 A 
ATOM     18  C   UNL     1      34.467   7.540 -23.980  0.00  0.00    +0.015 A 
ATOM     19  C   UNL     1      34.053   8.454 -26.054  0.00  0.00    +0.004 A 
ATOM     20  C   UNL     1      34.957   7.987 -25.165  0.00  0.00    +0.001 A 
BRANCH  14  21
ATOM     21  O   UNL     1      33.330   6.137 -21.566  0.00  0.00    -0.491 OA
ATOM     22  C   UNL     1      33.161   6.821 -20.333  0.00  0.00    +0.277 C 
ENDBRANCH  14  21
ENDBRANCH  10  12
BRANCH   2  23
ATOM     23  C   UNL     1      24.777   0.370 -23.139  0.00  0.00    +0.251 C 
ATOM     24  O   UNL     1      24.052   0.064 -24.092  0.00  0.00    -0.270 OA
ATOM     25  N   UNL     1      24.777  -0.378 -21.976  0.00  0.00    -0.307 N 
ATOM     26  H   UNL     1      25.421  -0.145 -21.268  0.00  0.00    +0.149 HD
BRANCH  25  27
ATOM     27  C   UNL     1      23.878  -1.488 -21.748  0.00  0.00    +0.139 C 
BRANCH  27  28
ATOM     28  C   UNL     1      22.843  -1.193 -20.694  0.00  0.00    -0.030 A 
ATOM     29  C   UNL     1      22.569   0.123 -20.312  0.00  0.00    +0.007 A 
ATOM     30  C   UNL     1      22.124  -2.225 -20.073  0.00  0.00    +0.007 A 
ATOM     31  C   UNL     1      21.619   0.386 -19.320  0.00  0.00    +0.023 A 
ATOM     32  C   UNL     1      21.163  -1.949 -19.084  0.00  0.00    +0.023 A 
ATOM     33  C   UNL     1      20.909  -0.639 -18.670  0.00  0.00    +0.030 A 
BRANCH  33  34
ATOM     34  N   UNL     1      20.002  -0.284 -17.678  0.00  0.00    -0.333 N 
ATOM     35  C   UNL     1      19.108   0.879 -17.828  0.00  0.00    +0.086 C 
ATOM     36  C   UNL     1      19.309  -1.428 -17.046  0.00  0.00    +0.086 C 
ATOM     37  C   UNL     1      18.556   1.280 -16.423  0.00  0.00    -0.060 C 
ATOM     38  C   UNL     1      18.780  -0.994 -15.664  0.00  0.00    -0.060 C 
ATOM     39  N   UNL     1      17.887   0.182 -15.747  0.00  0.00    +0.380 N 
ATOM     40  C   UNL     1      17.444   0.568 -14.412  0.00  0.00    -0.096 C 
ATOM     41  H   UNL     1      17.062  -0.062 -16.296  0.00  0.00    -0.082 HD
ENDBRANCH  33  34
ENDBRANCH  27  28
ENDBRANCH  25  27
ENDBRANCH   2  23
TORSDOF 6
ENDMDL
MODEL 4
REMARK VINA RESULT:   -10.545      4.081     14.919
REMARK INTER + INTRA:         -13.756
REMARK INTER:                 -12.854
REMARK INTRA:                  -0.902
REMARK UNBOUND:                 0.487
REMARK  Name = CTX-1020842
REMARK  8 active torsions:
REMARK  status: ('A' for Active; 'I' for Inactive)
REMARK    1  A    between atoms: C_2  and  C_4
REMARK    2  A    between atoms: N_9  and  C_12
REMARK    3  A    between atoms: C_12  and  C_14
REMARK    4  A    between atoms: C_15  and  C_19
REMARK    5  A    between atoms: C_23  and  O_26
REMARK    6  A    between atoms: C_24  and  N_28
REMARK    7  A    between atoms: O_26  and  C_30
REMARK    8  A    between atoms: N_38  and  C_39
REMARK                            x       y       z     vdW  Elec       q    Type
REMARK                         _______ _______ _______ _____ _____    ______ ____
ROOT
ATOM      1  S   UNL     1      34.649   8.031 -23.883  0.00  0.00    -0.088 S 
ATOM      2  C   UNL     1      33.031   7.904 -24.451  0.00  0.00    +0.074 A 
ATOM      3  C   UNL     1      35.281   8.056 -25.466  0.00  0.00    -0.003 A 
ATOM      4  C   UNL     1      33.009   7.859 -25.843  0.00  0.00    +0.026 A 
ATOM      5  C   UNL     1      34.314   7.964 -26.441  0.00  0.00    -0.019 A 
ATOM      6  C   UNL     1      36.745   8.213 -25.754  0.00  0.00    +0.062 C 
ATOM      7  C   UNL     1      34.658   7.982 -27.915  0.00  0.00    +0.144 C 
ATOM      8  C   UNL     1      37.048   7.802 -27.208  0.00  0.00    +0.113 C 
ATOM      9  N   UNL     1      36.081   8.387 -28.131  0.00  0.00    -0.290 N 
ATOM     10  C   UNL     1      36.407   8.931 -29.384  0.00  0.00    +0.286 C 
ATOM     11  O   UNL     1      35.470   9.070 -30.185  0.00  0.00    -0.266 OA
ENDROOT
BRANCH  10  12
ATOM     12  C   UNL     1      37.789   9.231 -29.851  0.00  0.00    +0.232 A 
ATOM     13  O   UNL     1      38.709   8.315 -30.468  0.00  0.00    -0.446 OA
ATOM     14  C   UNL     1      38.515  10.351 -29.478  0.00  0.00    +0.178 A 
ATOM     15  C   UNL     1      40.026   8.817 -30.266  0.00  0.00    +0.140 A 
ATOM     16  C   UNL     1      39.871  10.010 -29.599  0.00  0.00    +0.063 A 
ATOM     17  C   UNL     1      41.374   8.407 -30.572  0.00  0.00    +0.047 A 
ATOM     18  C   UNL     1      41.012  10.639 -29.151  0.00  0.00    +0.015 A 
ATOM     19  C   UNL     1      42.481   9.067 -29.975  0.00  0.00    +0.004 A 
ATOM     20  C   UNL     1      42.270  10.129 -29.165  0.00  0.00    +0.001 A 
BRANCH  14  21
ATOM     21  O   UNL     1      38.133  11.460 -28.788  0.00  0.00    -0.491 OA
ATOM     22  C   UNL     1      38.164  11.365 -27.372  0.00  0.00    +0.277 C 
ENDBRANCH  14  21
ENDBRANCH  10  12
BRANCH   2  23
ATOM     23  C   UNL     1      31.874   7.880 -23.544  0.00  0.00    +0.251 C 
ATOM     24  O   UNL     1      31.287   8.916 -23.213  0.00  0.00    -0.270 OA
ATOM     25  N   UNL     1      31.480   6.649 -23.051  0.00  0.00    -0.307 N 
ATOM     26  H   UNL     1      31.927   5.842 -23.395  0.00  0.00    +0.149 HD
BRANCH  25  27
ATOM     27  C   UNL     1      30.441   6.490 -22.058  0.00  0.00    +0.139 C 
BRANCH  27  28
ATOM     28  C   UNL     1      29.370   5.520 -22.484  0.00  0.00    -0.030 A 
ATOM     29  C   UNL     1      29.326   4.228 -21.954  0.00  0.00    +0.007 A 
ATOM     30  C   UNL     1      28.388   5.886 -23.417  0.00  0.00    +0.007 A 
ATOM     31  C   UNL     1      28.339   3.329 -22.369  0.00  0.00    +0.023 A 
ATOM     32  C   UNL     1      27.394   4.977 -23.820  0.00  0.00    +0.023 A 
ATOM     33  C   UNL     1      27.364   3.672 -23.323  0.00  0.00    +0.030 A 
BRANCH  33  34
ATOM     34  N   UNL     1      26.437   2.705 -23.693  0.00  0.00    -0.333 N 
ATOM     35  C   UNL     1      26.419   2.133 -25.052  0.00  0.00    +0.086 C 
ATOM     36  C   UNL     1      26.181   1.676 -22.663  0.00  0.00    +0.086 C 
ATOM     37  C   UNL     1      25.037   1.444 -25.295  0.00  0.00    -0.060 C 
ATOM     38  C   UNL     1      24.811   1.021 -22.936  0.00  0.00    -0.060 C 
ATOM     39  N   UNL     1      24.725   0.439 -24.293  0.00  0.00    +0.380 N 
ATOM     40  C   UNL     1      23.402  -0.134 -24.507  0.00  0.00    -0.096 C 
ATOM     41  H   UNL     1      25.413  -0.309 -24.381  0.00  0.00    -0.082 HD
ENDBRANCH  33  34
ENDBRANCH  27  28
ENDBRANCH  25  27
ENDBRANCH   2  23
TORSDOF 6
ENDMDL
MODEL 5
REMARK VINA RESULT:   -10.348      2.582      3.941
REMARK INTER + INTRA:         -13.490
REMARK INTER:                 -12.801
REMARK INTRA:                  -0.689
REMARK UNBOUND:                 0.487
REMARK  Name = CTX-1020842
REMARK  8 active torsions:
REMARK  status: ('A' for Active; 'I' for Inactive)
REMARK    1  A    between atoms: C_2  and  C_4
REMARK    2  A    between atoms: N_9  and  C_12
REMARK    3  A    between atoms: C_12  and  C_14
REMARK    4  A    between atoms: C_15  and  C_19
REMARK    5  A    between atoms: C_23  and  O_26
REMARK    6  A    between atoms: C_24  and  N_28
REMARK    7  A    between atoms: O_26  and  C_30
REMARK    8  A    between atoms: N_38  and  C_39
REMARK                            x       y       z     vdW  Elec       q    Type
REMARK                         _______ _______ _______ _____ _____    ______ ____
ROOT
ATOM      1  S   UNL     1      27.049   3.167 -17.115  0.00  0.00    -0.088 S 
ATOM      2  C   UNL     1      28.162   3.400 -18.406  0.00  0.00    +0.074 A 
ATOM      3  C   UNL     1      25.897   2.440 -18.142  0.00  0.00    -0.003 A 
ATOM      4  C   UNL     1      27.619   2.938 -19.602  0.00  0.00    +0.026 A 
ATOM      5  C   UNL     1      26.308   2.363 -19.452  0.00  0.00    -0.019 A 
ATOM      6  C   UNL     1      24.590   1.899 -17.641  0.00  0.00    +0.062 C 
ATOM      7  C   UNL     1      25.442   1.741 -20.528  0.00  0.00    +0.144 C 
ATOM      8  C   UNL     1      23.620   1.682 -18.818  0.00  0.00    +0.113 C 
ATOM      9  N   UNL     1      24.284   1.008 -19.929  0.00  0.00    -0.290 N 
ATOM     10  C   UNL     1      23.702  -0.009 -20.704  0.00  0.00    +0.286 C 
ATOM     11  O   UNL     1      24.235  -0.240 -21.800  0.00  0.00    -0.266 OA
ENDROOT
BRANCH  10  12
ATOM     12  C   UNL     1      22.445  -0.730 -20.362  0.00  0.00    +0.232 A 
ATOM     13  O   UNL     1      21.295  -0.188 -19.689  0.00  0.00    -0.446 OA
ATOM     14  C   UNL     1      22.311  -2.109 -20.353  0.00  0.00    +0.178 A 
ATOM     15  C   UNL     1      20.585  -1.270 -19.097  0.00  0.00    +0.140 A 
ATOM     16  C   UNL     1      21.271  -2.406 -19.458  0.00  0.00    +0.063 A 
ATOM     17  C   UNL     1      19.411  -1.446 -18.279  0.00  0.00    +0.047 A 
ATOM     18  C   UNL     1      20.870  -3.597 -18.891  0.00  0.00    +0.015 A 
ATOM     19  C   UNL     1      19.144  -2.695 -17.660  0.00  0.00    +0.004 A 
ATOM     20  C   UNL     1      19.962  -3.746 -17.893  0.00  0.00    +0.001 A 
BRANCH  14  21
ATOM     21  O   UNL     1      23.162  -3.081 -20.781  0.00  0.00    -0.491 OA
ATOM     22  C   UNL     1      22.939  -3.585 -22.089  0.00  0.00    +0.277 C 
ENDBRANCH  14  21
ENDBRANCH  10  12
BRANCH   2  23
ATOM     23  C   UNL     1      29.495   3.984 -18.203  0.00  0.00    +0.251 C 
ATOM     24  O   UNL     1      30.269   3.552 -17.342  0.00  0.00    -0.270 OA
ATOM     25  N   UNL     1      29.845   5.059 -19.001  0.00  0.00    -0.307 N 
ATOM     26  H   UNL     1      29.231   5.327 -19.722  0.00  0.00    +0.149 HD
BRANCH  25  27
ATOM     27  C   UNL     1      31.070   5.807 -18.828  0.00  0.00    +0.139 C 
BRANCH  27  28
ATOM     28  C   UNL     1      31.642   6.299 -20.132  0.00  0.00    -0.030 A 
ATOM     29  C   UNL     1      30.844   6.375 -21.277  0.00  0.00    +0.007 A 
ATOM     30  C   UNL     1      32.982   6.699 -20.234  0.00  0.00    +0.007 A 
ATOM     31  C   UNL     1      31.387   6.815 -22.488  0.00  0.00    +0.023 A 
ATOM     32  C   UNL     1      33.516   7.151 -21.453  0.00  0.00    +0.023 A 
ATOM     33  C   UNL     1      32.736   7.195 -22.611  0.00  0.00    +0.030 A 
BRANCH  33  34
ATOM     34  N   UNL     1      33.195   7.597 -23.860  0.00  0.00    -0.333 N 
ATOM     35  C   UNL     1      32.279   7.764 -25.003  0.00  0.00    +0.086 C 
ATOM     36  C   UNL     1      34.220   8.662 -23.821  0.00  0.00    +0.086 C 
ATOM     37  C   UNL     1      33.112   7.773 -26.325  0.00  0.00    -0.060 C 
ATOM     38  C   UNL     1      35.020   8.638 -25.139  0.00  0.00    -0.060 C 
ATOM     39  N   UNL     1      34.153   8.787 -26.327  0.00  0.00    +0.380 N 
ATOM     40  C   UNL     1      34.956   8.724 -27.543  0.00  0.00    -0.096 C 
ATOM     41  H   UNL     1      33.695   9.698 -26.296  0.00  0.00    -0.082 HD
ENDBRANCH  33  34
ENDBRANCH  27  28
ENDBRANCH  25  27
ENDBRANCH   2  23
TORSDOF 6
ENDMDL
