REMARK  Name = CTX-1020456
REMARK  6 active torsions:
REMARK  status: ('A' for Active; 'I' for Inactive)
REMARK    1  A    between atoms: C_3  and  C_6
REMARK    2  A    between atoms: C_20  and  C_22
REMARK    3  A    between atoms: N_25  and  C_26
REMARK    4  A    between atoms: C_26  and  C_27
REMARK    5  A    between atoms: C_32  and  N_33
REMARK    6  A    between atoms: N_38  and  C_39
REMARK                            x       y       z     vdW  Elec       q    Type
REMARK                         _______ _______ _______ _____ _____    ______ ____
ROOT
ATOM      1  C   UNL     1       1.981  -3.323   0.094  0.00  0.00    +0.255 C 
ATOM      2  O   UNL     1       2.838  -2.444  -0.096  0.00  0.00    -0.269 OA
ATOM      3  N   UNL     1       2.524  -4.662   0.154  0.00  0.00    -0.291 N 
ATOM      4  C   UNL     1       1.901  -5.988   0.505  0.00  0.00    +0.163 C 
ATOM      5  C   UNL     1       3.947  -4.639  -0.207  0.00  0.00    +0.113 C 
ATOM      6  C   UNL     1       2.744  -7.288   0.248  0.00  0.00    +0.063 A 
ATOM      7  C   UNL     1       4.813  -5.858  -0.041  0.00  0.00    +0.056 C 
ATOM      8  N   UNL     1       2.174  -8.550   0.378  0.00  0.00    -0.245 NA
ATOM      9  C   UNL     1       4.105  -7.159  -0.049  0.00  0.00    -0.023 A 
ATOM     10  C   UNL     1       3.004  -9.645   0.189  0.00  0.00    +0.126 A 
ATOM     11  C   UNL     1       4.901  -8.292  -0.255  0.00  0.00    +0.008 A 
ATOM     12  C   UNL     1       4.352  -9.548  -0.141  0.00  0.00    +0.033 A 
ENDROOT
BRANCH   1  15
ATOM     13 CL   UNL     1       1.247  -0.127  -0.145  0.00  0.00    -0.082 Cl
ATOM     14  C   UNL     1       0.197  -1.496   0.042  0.00  0.00    +0.068 A 
ATOM     15  C   UNL     1       0.581  -2.844   0.173  0.00  0.00    +0.093 A 
ATOM     16  C   UNL     1      -1.225  -1.256   0.037  0.00  0.00    +0.008 A 
ATOM     17  S   UNL     1      -0.817  -3.796   0.386  0.00  0.00    -0.082 S 
ATOM     18  C   UNL     1      -1.913  -2.450   0.224  0.00  0.00    +0.021 A 
ATOM     19  C   UNL     1      -1.984  -0.055  -0.131  0.00  0.00    +0.010 A 
ATOM     20  C   UNL     1      -3.331  -2.462   0.264  0.00  0.00    +0.016 A 
ATOM     21  C   UNL     1      -3.384  -0.070  -0.109  0.00  0.00    +0.001 A 
ATOM     22  C   UNL     1      -4.049  -1.268   0.092  0.00  0.00    +0.001 A 
ENDBRANCH   1  15
BRANCH  10  23
ATOM     23  C   UNL     1       2.542 -11.076   0.356  0.00  0.00    +0.263 C 
ATOM     24  O   UNL     1       3.369 -11.990   0.300  0.00  0.00    -0.269 OA
ATOM     25  N   UNL     1       1.213 -11.352   0.555  0.00  0.00    -0.306 N 
ATOM     26  H   UNL     1       0.565 -10.612   0.605  0.00  0.00    +0.149 HD
BRANCH  25  27
ATOM     27  C   UNL     1       0.748 -12.728   0.693  0.00  0.00    +0.140 C 
BRANCH  27  28
ATOM     28  C   UNL     1      -0.376 -13.037  -0.258  0.00  0.00    -0.030 A 
ATOM     29  C   UNL     1      -0.182 -12.969  -1.638  0.00  0.00    +0.007 A 
ATOM     30  C   UNL     1      -1.638 -13.399   0.211  0.00  0.00    +0.007 A 
ATOM     31  C   UNL     1      -1.255 -13.156  -2.520  0.00  0.00    +0.023 A 
ATOM     32  C   UNL     1      -2.698 -13.604  -0.683  0.00  0.00    +0.023 A 
ATOM     33  C   UNL     1      -2.553 -13.445  -2.070  0.00  0.00    +0.030 A 
BRANCH  33  34
ATOM     34  N   UNL     1      -3.630 -13.493  -2.937  0.00  0.00    -0.333 N 
ATOM     35  C   UNL     1      -3.507 -13.944  -4.335  0.00  0.00    +0.086 C 
ATOM     36  C   UNL     1      -5.025 -13.446  -2.463  0.00  0.00    +0.086 C 
ATOM     37  C   UNL     1      -4.399 -13.074  -5.255  0.00  0.00    -0.060 C 
ATOM     38  C   UNL     1      -5.882 -12.590  -3.425  0.00  0.00    -0.060 C 
ATOM     39  N   UNL     1      -5.815 -13.064  -4.824  0.00  0.00    +0.380 N 
ATOM     40  C   UNL     1      -6.619 -12.211  -5.695  0.00  0.00    -0.096 C 
ATOM     41  H   UNL     1      -6.195 -14.009  -4.886  0.00  0.00    -0.082 HD
ENDBRANCH  33  34
ENDBRANCH  27  28
ENDBRANCH  25  27
ENDBRANCH  10  23
TORSDOF 5
