REMARK  Name = CTX-1020523
REMARK  7 active torsions:
REMARK  status: ('A' for Active; 'I' for Inactive)
REMARK    1  A    between atoms: C_2  and  C_4
REMARK    2  A    between atoms: N_3  and  C_5
REMARK    3  A    between atoms: C_5  and  C_8
REMARK    4  A    between atoms: C_19  and  N_22
REMARK    5  A    between atoms: C_21  and  C_24
REMARK    6  A    between atoms: C_28  and  C_33
REMARK    7  A    between atoms: N_34  and  C_37
REMARK                            x       y       z     vdW  Elec       q    Type
REMARK                         _______ _______ _______ _____ _____    ______ ____
ROOT
ATOM      1  C   UNL     1       2.988   1.339   0.027  0.00  0.00    +0.216 A 
ATOM      2  N   UNL     1       3.990   1.471  -0.886  0.00  0.00    -0.227 NA
ATOM      3  N   UNL     1       2.599   2.275   0.909  0.00  0.00    -0.232 NA
ATOM      4  C   UNL     1       4.660   2.659  -0.872  0.00  0.00    +0.066 A 
ATOM      5  C   UNL     1       3.267   3.436   0.866  0.00  0.00    +0.118 A 
ATOM      6  C   UNL     1       4.318   3.686   0.009  0.00  0.00    -0.005 A 
ATOM      7  C   UNL     1       5.844   2.839  -1.826  0.00  0.00    +0.163 C 
ATOM      8  C   UNL     1       4.983   5.031  -0.014  0.00  0.00    +0.057 C 
ATOM      9  N   UNL     1       6.234   4.242  -1.987  0.00  0.00    -0.289 N 
ATOM     10  C   UNL     1       6.312   5.025  -0.763  0.00  0.00    +0.113 C 
ATOM     11  C   UNL     1       6.758   4.704  -3.203  0.00  0.00    +0.283 C 
ATOM     12  O   UNL     1       7.293   3.935  -3.998  0.00  0.00    -0.267 OA
ENDROOT
BRANCH  11  13
ATOM     13  C   UNL     1       6.375   6.078  -3.565  0.00  0.00    +0.194 A 
ATOM     14  O   UNL     1       5.192   6.500  -2.988  0.00  0.00    -0.450 OA
ATOM     15  C   UNL     1       6.510   6.797  -4.755  0.00  0.00    +0.008 A 
ATOM     16  C   UNL     1       4.395   6.806  -4.039  0.00  0.00    +0.136 A 
ATOM     17  C   UNL     1       5.155   6.904  -5.192  0.00  0.00    +0.024 A 
ATOM     18  C   UNL     1       7.706   7.233  -5.515  0.00  0.00    +0.048 C 
ATOM     19  C   UNL     1       3.015   6.909  -3.975  0.00  0.00    +0.047 A 
ATOM     20  C   UNL     1       4.488   7.072  -6.417  0.00  0.00    +0.012 A 
ATOM     21  C   UNL     1       2.367   7.011  -5.205  0.00  0.00    +0.004 A 
ATOM     22  C   UNL     1       3.085   7.069  -6.405  0.00  0.00    +0.001 A 
ENDBRANCH  11  13
BRANCH   1  24
ATOM     23  O   UNL     1       1.504  -0.274   1.017  0.00  0.00    -0.267 OA
ATOM     24  C   UNL     1       2.202   0.042   0.042  0.00  0.00    +0.282 C 
ATOM     25  N   UNL     1       2.294  -0.741  -1.089  0.00  0.00    -0.305 N 
ATOM     26  H   UNL     1       2.870  -0.442  -1.829  0.00  0.00    +0.149 HD
BRANCH  25  27
ATOM     27  C   UNL     1       1.568  -1.993  -1.226  0.00  0.00    +0.140 C 
BRANCH  27  28
ATOM     28  C   UNL     1       2.506  -3.131  -1.524  0.00  0.00    -0.030 A 
ATOM     29  C   UNL     1       3.525  -3.446  -0.620  0.00  0.00    +0.007 A 
ATOM     30  C   UNL     1       2.374  -3.911  -2.677  0.00  0.00    +0.007 A 
ATOM     31  C   UNL     1       4.417  -4.483  -0.893  0.00  0.00    +0.023 A 
ATOM     32  C   UNL     1       3.269  -4.963  -2.939  0.00  0.00    +0.023 A 
ATOM     33  C   UNL     1       4.320  -5.250  -2.063  0.00  0.00    +0.030 A 
BRANCH  33  34
ATOM     34  N   UNL     1       5.261  -6.255  -2.274  0.00  0.00    -0.333 N 
ATOM     35  C   UNL     1       4.936  -7.422  -3.110  0.00  0.00    +0.086 C 
ATOM     36  C   UNL     1       6.631  -5.759  -2.531  0.00  0.00    +0.086 C 
ATOM     37  C   UNL     1       5.968  -8.545  -2.823  0.00  0.00    -0.060 C 
ATOM     38  C   UNL     1       7.643  -6.892  -2.249  0.00  0.00    -0.060 C 
ATOM     39  N   UNL     1       7.372  -8.116  -3.041  0.00  0.00    +0.380 N 
ATOM     40  C   UNL     1       8.299  -9.179  -2.657  0.00  0.00    -0.096 C 
ATOM     41  H   UNL     1       7.508  -7.916  -4.032  0.00  0.00    -0.082 HD
ENDBRANCH  33  34
ENDBRANCH  27  28
ENDBRANCH  25  27
ENDBRANCH   1  24
TORSDOF 5
