REMARK  Name = CTX-1020518
REMARK  8 active torsions:
REMARK  status: ('A' for Active; 'I' for Inactive)
REMARK    1  A    between atoms: C_2  and  C_4
REMARK    2  A    between atoms: N_9  and  C_12
REMARK    3  A    between atoms: C_12  and  C_14
REMARK    4  A    between atoms: C_15  and  C_19
REMARK    5  A    between atoms: C_23  and  C_27
REMARK    6  A    between atoms: C_24  and  N_28
REMARK    7  A    between atoms: N_28  and  C_31
REMARK    8  A    between atoms: N_28  and  C_32
REMARK                            x       y       z     vdW  Elec       q    Type
REMARK                         _______ _______ _______ _____ _____    ______ ____
ROOT
ATOM      1  S   UNL     1       1.790  -0.705  -0.024  0.00  0.00    -0.088 S 
ATOM      2  C   UNL     1       2.111   0.979   0.044  0.00  0.00    +0.074 A 
ATOM      3  C   UNL     1       0.103  -0.454  -0.022  0.00  0.00    -0.003 A 
ATOM      4  C   UNL     1       0.923   1.697   0.092  0.00  0.00    +0.026 A 
ATOM      5  C   UNL     1      -0.252   0.876   0.050  0.00  0.00    -0.019 A 
ATOM      6  C   UNL     1      -0.880  -1.579  -0.142  0.00  0.00    +0.062 C 
ATOM      7  C   UNL     1      -1.690   1.349   0.065  0.00  0.00    +0.144 C 
ATOM      8  C   UNL     1      -2.298  -1.073   0.178  0.00  0.00    +0.113 C 
ATOM      9  N   UNL     1      -2.571   0.261  -0.371  0.00  0.00    -0.290 N 
ATOM     10  C   UNL     1      -3.757   0.572  -1.056  0.00  0.00    +0.283 C 
ATOM     11  O   UNL     1      -4.248   1.700  -0.991  0.00  0.00    -0.267 OA
ENDROOT
BRANCH  10  12
ATOM     12  C   UNL     1      -4.218  -0.435  -2.045  0.00  0.00    +0.194 A 
ATOM     13  O   UNL     1      -3.171  -1.189  -2.565  0.00  0.00    -0.450 OA
ATOM     14  C   UNL     1      -5.076  -0.239  -3.139  0.00  0.00    +0.008 A 
ATOM     15  C   UNL     1      -2.971  -0.608  -3.778  0.00  0.00    +0.136 A 
ATOM     16  C   UNL     1      -4.125   0.051  -4.171  0.00  0.00    +0.024 A 
ATOM     17  C   UNL     1      -6.543  -0.106  -3.216  0.00  0.00    +0.048 C 
ATOM     18  C   UNL     1      -1.766  -0.594  -4.463  0.00  0.00    +0.047 A 
ATOM     19  C   UNL     1      -4.102   0.798  -5.356  0.00  0.00    +0.012 A 
ATOM     20  C   UNL     1      -1.723   0.254  -5.568  0.00  0.00    +0.004 A 
ATOM     21  C   UNL     1      -2.865   0.941  -6.003  0.00  0.00    +0.001 A 
ENDBRANCH  10  12
BRANCH   2  22
ATOM     22  C   UNL     1       3.451   1.542   0.043  0.00  0.00    +0.251 C 
ATOM     23  O   UNL     1       3.649   2.763   0.096  0.00  0.00    -0.270 OA
ATOM     24  N   UNL     1       4.518   0.655  -0.025  0.00  0.00    -0.307 N 
ATOM     25  H   UNL     1       4.326  -0.307  -0.103  0.00  0.00    +0.149 HD
BRANCH  24  26
ATOM     26  C   UNL     1       5.899   1.083   0.015  0.00  0.00    +0.139 C 
BRANCH  26  27
ATOM     27  C   UNL     1       6.677   0.679  -1.213  0.00  0.00    -0.030 A 
ATOM     28  C   UNL     1       6.295   1.115  -2.482  0.00  0.00    +0.007 A 
ATOM     29  C   UNL     1       7.846  -0.081  -1.115  0.00  0.00    +0.007 A 
ATOM     30  C   UNL     1       7.060   0.791  -3.617  0.00  0.00    +0.023 A 
ATOM     31  C   UNL     1       8.608  -0.391  -2.258  0.00  0.00    +0.023 A 
ATOM     32  C   UNL     1       8.244   0.036  -3.545  0.00  0.00    +0.029 A 
BRANCH  32  33
ATOM     33  N   UNL     1       8.957  -0.305  -4.690  0.00  0.00    -0.336 N 
ATOM     34  C   UNL     1       9.074   0.644  -5.799  0.00  0.00    +0.129 C 
ATOM     35  C   UNL     1      10.000  -1.329  -4.675  0.00  0.00    +0.129 C 
ENDBRANCH  32  33
ENDBRANCH  26  27
ENDBRANCH  24  26
ENDBRANCH   2  22
TORSDOF 5
