REMARK  Name = CTX-1019630
REMARK  7 active torsions:
REMARK  status: ('A' for Active; 'I' for Inactive)
REMARK    1  A    between atoms: C_2  and  C_4
REMARK    2  A    between atoms: N_3  and  C_5
REMARK    3  A    between atoms: C_5  and  C_8
REMARK    4  A    between atoms: C_19  and  N_22
REMARK    5  A    between atoms: C_21  and  C_24
REMARK    6  A    between atoms: N_27  and  C_32
REMARK    7  A    between atoms: N_34  and  C_35
REMARK                            x       y       z     vdW  Elec       q    Type
REMARK                         _______ _______ _______ _____ _____    ______ ____
ROOT
ATOM      1  O   UNL     1       1.155  -0.186  -0.101  0.00  0.00    -0.269 OA
ATOM      2  C   UNL     1       2.364  -0.026   0.007  0.00  0.00    +0.263 C 
ATOM      3  N   UNL     1       3.065   0.931  -0.689  0.00  0.00    -0.306 N 
ATOM      4  H   UNL     1       4.035   1.016  -0.544  0.00  0.00    +0.149 HD
ENDROOT
BRANCH   2   5
ATOM      5  C   UNL     1       3.173  -0.911   0.908  0.00  0.00    +0.126 A 
ATOM      6  N   UNL     1       4.513  -0.659   1.040  0.00  0.00    -0.245 NA
ATOM      7  C   UNL     1       2.514  -1.954   1.539  0.00  0.00    +0.033 A 
ATOM      8  C   UNL     1       5.217  -1.500   1.851  0.00  0.00    +0.063 A 
ATOM      9  C   UNL     1       3.247  -2.819   2.333  0.00  0.00    +0.008 A 
ATOM     10  C   UNL     1       4.618  -2.612   2.471  0.00  0.00    -0.023 A 
ATOM     11  C   UNL     1       6.712  -1.233   2.037  0.00  0.00    +0.163 C 
ATOM     12  C   UNL     1       5.410  -3.563   3.319  0.00  0.00    +0.056 C 
ATOM     13  N   UNL     1       7.341  -2.099   3.050  0.00  0.00    -0.290 N 
ATOM     14  C   UNL     1       6.891  -3.486   2.992  0.00  0.00    +0.113 C 
ATOM     15  C   UNL     1       8.087  -1.514   4.082  0.00  0.00    +0.263 C 
ATOM     16  O   UNL     1       8.217  -0.294   4.130  0.00  0.00    -0.268 OA
BRANCH  15  17
ATOM     17  C   UNL     1       8.709  -2.375   5.090  0.00  0.00    +0.104 A 
ATOM     18  N   UNL     1       8.901  -2.038   6.423  0.00  0.00    -0.346 N 
ATOM     19  C   UNL     1       9.312  -3.621   4.940  0.00  0.00    +0.032 A 
ATOM     20  C   UNL     1       9.541  -3.061   7.085  0.00  0.00    +0.086 A 
ATOM     21  C   UNL     1       8.485  -0.832   7.109  0.00  0.00    +0.149 C 
ATOM     22  C   UNL     1       9.758  -4.081   6.196  0.00  0.00    +0.020 A 
ENDBRANCH  15  17
ENDBRANCH   2   5
BRANCH   3  23
ATOM     23  C   UNL     1       2.412   1.816  -1.628  0.00  0.00    +0.140 C 
BRANCH  23  24
ATOM     24  C   UNL     1       2.958   1.659  -3.023  0.00  0.00    -0.030 A 
ATOM     25  C   UNL     1       2.898   0.425  -3.676  0.00  0.00    +0.007 A 
ATOM     26  C   UNL     1       3.487   2.752  -3.715  0.00  0.00    +0.007 A 
ATOM     27  C   UNL     1       3.393   0.288  -4.976  0.00  0.00    +0.023 A 
ATOM     28  C   UNL     1       3.975   2.606  -5.022  0.00  0.00    +0.023 A 
ATOM     29  C   UNL     1       3.951   1.369  -5.676  0.00  0.00    +0.030 A 
BRANCH  29  30
ATOM     30  N   UNL     1       4.378   1.187  -6.979  0.00  0.00    -0.333 N 
ATOM     31  C   UNL     1       4.441   2.301  -7.934  0.00  0.00    +0.086 C 
ATOM     32  C   UNL     1       5.366   0.128  -7.258  0.00  0.00    +0.086 C 
ATOM     33  C   UNL     1       4.238   1.741  -9.363  0.00  0.00    -0.060 C 
ATOM     34  C   UNL     1       5.164  -0.391  -8.702  0.00  0.00    -0.060 C 
ATOM     35  N   UNL     1       5.228   0.693  -9.712  0.00  0.00    +0.380 N 
ATOM     36  C   UNL     1       4.964   0.164 -11.048  0.00  0.00    -0.096 C 
ATOM     37  H   UNL     1       6.164   1.098  -9.715  0.00  0.00    -0.082 HD
ENDBRANCH  29  30
ENDBRANCH  23  24
ENDBRANCH   3  23
TORSDOF 5
