MODEL 1
REMARK VINA RESULT:   -12.366      0.000      0.000
REMARK INTER + INTRA:         -16.757
REMARK INTER:                 -15.981
REMARK INTRA:                  -0.776
REMARK UNBOUND:                -0.776
REMARK  Name = CTX-1020838
REMARK  6 active torsions:
REMARK  status: ('A' for Active; 'I' for Inactive)
REMARK    1  A    between atoms: C_3  and  C_6
REMARK    2  A    between atoms: C_21  and  C_23
REMARK    3  A    between atoms: N_26  and  C_27
REMARK    4  A    between atoms: C_27  and  C_28
REMARK    5  A    between atoms: C_33  and  N_34
REMARK    6  A    between atoms: N_39  and  C_40
REMARK                            x       y       z     vdW  Elec       q    Type
REMARK                         _______ _______ _______ _____ _____    ______ ____
ROOT
ATOM      1  C   UNL     1      20.105  -0.501 -16.652  0.00  0.00    +0.284 C 
ATOM      2  O   UNL     1      19.537  -1.453 -16.091  0.00  0.00    -0.267 OA
ATOM      3  N   UNL     1      20.600  -0.802 -17.966  0.00  0.00    -0.289 N 
ATOM      4  C   UNL     1      21.211   0.082 -19.015  0.00  0.00    +0.163 C 
ATOM      5  C   UNL     1      20.507  -2.244 -18.225  0.00  0.00    +0.113 C 
ATOM      6  C   UNL     1      21.841  -0.613 -20.276  0.00  0.00    +0.063 A 
ATOM      7  C   UNL     1      20.724  -2.788 -19.610  0.00  0.00    +0.056 C 
ATOM      8  N   UNL     1      22.552   0.123 -21.218  0.00  0.00    -0.245 NA
ATOM      9  C   UNL     1      21.616  -1.980 -20.478  0.00  0.00    -0.023 A 
ATOM     10  C   UNL     1      23.039  -0.558 -22.328  0.00  0.00    +0.126 A 
ATOM     11  C   UNL     1      22.143  -2.632 -21.599  0.00  0.00    +0.008 A 
ATOM     12  C   UNL     1      22.863  -1.920 -22.528  0.00  0.00    +0.033 A 
ENDROOT
BRANCH   1  15
ATOM     13 CL   UNL     1      17.438   1.305 -15.765  0.00  0.00    -0.079 Cl
ATOM     14  C   UNL     1      19.109   1.501 -15.436  0.00  0.00    +0.099 A 
ATOM     15  C   UNL     1      20.202   0.731 -15.855  0.00  0.00    +0.209 A 
ATOM     16  C   UNL     1      19.567   2.541 -14.600  0.00  0.00    +0.042 A 
ATOM     17  O   UNL     1      21.346   1.296 -15.322  0.00  0.00    -0.446 OA
ATOM     18  C   UNL     1      20.955   2.394 -14.569  0.00  0.00    +0.172 A 
ATOM     19  C   UNL     1      18.955   3.583 -13.865  0.00  0.00    +0.013 A 
ATOM     20  C   UNL     1      21.756   3.280 -13.837  0.00  0.00    +0.166 A 
ATOM     21  C   UNL     1      19.739   4.463 -13.121  0.00  0.00    +0.004 A 
ATOM     22  F   UNL     1      23.088   3.176 -13.813  0.00  0.00    -0.202 F 
ATOM     23  C   UNL     1      21.126   4.318 -13.114  0.00  0.00    +0.042 A 
ENDBRANCH   1  15
BRANCH  10  24
ATOM     24  C   UNL     1      23.771   0.124 -23.464  0.00  0.00    +0.263 C 
ATOM     25  O   UNL     1      23.416  -0.080 -24.635  0.00  0.00    -0.269 OA
ATOM     26  N   UNL     1      24.828   0.960 -23.189  0.00  0.00    -0.306 N 
ATOM     27  H   UNL     1      25.080   1.128 -22.252  0.00  0.00    +0.149 HD
BRANCH  26  28
ATOM     28  C   UNL     1      25.583   1.604 -24.257  0.00  0.00    +0.140 C 
BRANCH  28  29
ATOM     29  C   UNL     1      26.605   2.559 -23.701  0.00  0.00    -0.030 A 
ATOM     30  C   UNL     1      26.870   3.780 -24.328  0.00  0.00    +0.007 A 
ATOM     31  C   UNL     1      27.347   2.220 -22.568  0.00  0.00    +0.007 A 
ATOM     32  C   UNL     1      27.877   4.624 -23.841  0.00  0.00    +0.023 A 
ATOM     33  C   UNL     1      28.362   3.065 -22.104  0.00  0.00    +0.023 A 
ATOM     34  C   UNL     1      28.660   4.286 -22.727  0.00  0.00    +0.030 A 
BRANCH  34  35
ATOM     35  N   UNL     1      29.615   5.157 -22.241  0.00  0.00    -0.333 N 
ATOM     36  C   UNL     1      29.484   6.612 -22.387  0.00  0.00    +0.086 C 
ATOM     37  C   UNL     1      30.537   4.757 -21.161  0.00  0.00    +0.086 C 
ATOM     38  C   UNL     1      30.884   7.229 -22.607  0.00  0.00    -0.060 C 
ATOM     39  C   UNL     1      31.921   5.417 -21.393  0.00  0.00    -0.060 C 
ATOM     40  N   UNL     1      31.841   6.892 -21.528  0.00  0.00    +0.380 N 
ATOM     41  C   UNL     1      33.156   7.454 -21.823  0.00  0.00    -0.096 C 
ATOM     42  H   UNL     1      31.517   7.292 -20.647  0.00  0.00    -0.082 HD
ENDBRANCH  34  35
ENDBRANCH  28  29
ENDBRANCH  26  28
ENDBRANCH  10  24
TORSDOF 5
ENDMDL
MODEL 2
REMARK VINA RESULT:   -11.215      3.740      6.981
REMARK INTER + INTRA:         -15.269
REMARK INTER:                 -14.519
REMARK INTRA:                  -0.750
REMARK UNBOUND:                -0.776
REMARK  Name = CTX-1020838
REMARK  6 active torsions:
REMARK  status: ('A' for Active; 'I' for Inactive)
REMARK    1  A    between atoms: C_3  and  C_6
REMARK    2  A    between atoms: C_21  and  C_23
REMARK    3  A    between atoms: N_26  and  C_27
REMARK    4  A    between atoms: C_27  and  C_28
REMARK    5  A    between atoms: C_33  and  N_34
REMARK    6  A    between atoms: N_39  and  C_40
REMARK                            x       y       z     vdW  Elec       q    Type
REMARK                         _______ _______ _______ _____ _____    ______ ____
ROOT
ATOM      1  C   UNL     1      20.204  -0.494 -18.974  0.00  0.00    +0.284 C 
ATOM      2  O   UNL     1      18.987  -0.284 -19.111  0.00  0.00    -0.267 OA
ATOM      3  N   UNL     1      20.895   0.520 -18.228  0.00  0.00    -0.289 N 
ATOM      4  C   UNL     1      22.310   0.582 -17.727  0.00  0.00    +0.163 C 
ATOM      5  C   UNL     1      20.017   1.676 -18.007  0.00  0.00    +0.113 C 
ATOM      6  C   UNL     1      22.806   1.942 -17.115  0.00  0.00    +0.063 A 
ATOM      7  C   UNL     1      20.409   2.762 -17.043  0.00  0.00    +0.056 C 
ATOM      8  N   UNL     1      24.140   2.125 -16.766  0.00  0.00    -0.245 NA
ATOM      9  C   UNL     1      21.869   2.951 -16.859  0.00  0.00    -0.023 A 
ATOM     10  C   UNL     1      24.490   3.340 -16.188  0.00  0.00    +0.126 A 
ATOM     11  C   UNL     1      22.268   4.169 -16.296  0.00  0.00    +0.008 A 
ATOM     12  C   UNL     1      23.586   4.368 -15.963  0.00  0.00    +0.033 A 
ENDROOT
BRANCH   1  15
ATOM     13 CL   UNL     1      19.774  -3.561 -17.722  0.00  0.00    -0.079 Cl
ATOM     14  C   UNL     1      20.528  -3.011 -19.160  0.00  0.00    +0.099 A 
ATOM     15  C   UNL     1      20.711  -1.706 -19.635  0.00  0.00    +0.209 A 
ATOM     16  C   UNL     1      21.048  -3.924 -20.102  0.00  0.00    +0.042 A 
ATOM     17  O   UNL     1      21.374  -1.785 -20.845  0.00  0.00    -0.446 OA
ATOM     18  C   UNL     1      21.580  -3.129 -21.119  0.00  0.00    +0.172 A 
ATOM     19  C   UNL     1      21.119  -5.333 -20.203  0.00  0.00    +0.013 A 
ATOM     20  C   UNL     1      22.205  -3.708 -22.231  0.00  0.00    +0.166 A 
ATOM     21  C   UNL     1      21.727  -5.922 -21.310  0.00  0.00    +0.004 A 
ATOM     22  F   UNL     1      22.745  -2.968 -23.205  0.00  0.00    -0.202 F 
ATOM     23  C   UNL     1      22.271  -5.117 -22.310  0.00  0.00    +0.042 A 
ENDBRANCH   1  15
BRANCH  10  24
ATOM     24  C   UNL     1      25.888   3.653 -15.697  0.00  0.00    +0.263 C 
ATOM     25  O   UNL     1      26.171   3.484 -14.502  0.00  0.00    -0.269 OA
ATOM     26  N   UNL     1      26.829   4.128 -16.580  0.00  0.00    -0.306 N 
ATOM     27  H   UNL     1      26.591   4.234 -17.529  0.00  0.00    +0.149 HD
BRANCH  26  28
ATOM     28  C   UNL     1      28.174   4.478 -16.137  0.00  0.00    +0.140 C 
BRANCH  28  29
ATOM     29  C   UNL     1      29.043   4.874 -17.300  0.00  0.00    -0.030 A 
ATOM     30  C   UNL     1      29.423   6.204 -17.500  0.00  0.00    +0.007 A 
ATOM     31  C   UNL     1      29.449   3.920 -18.236  0.00  0.00    +0.007 A 
ATOM     32  C   UNL     1      30.170   6.568 -18.628  0.00  0.00    +0.023 A 
ATOM     33  C   UNL     1      30.180   4.302 -19.368  0.00  0.00    +0.023 A 
ATOM     34  C   UNL     1      30.556   5.632 -19.600  0.00  0.00    +0.030 A 
BRANCH  34  35
ATOM     35  N   UNL     1      31.331   6.010 -20.679  0.00  0.00    -0.333 N 
ATOM     36  C   UNL     1      32.702   6.510 -20.513  0.00  0.00    +0.086 C 
ATOM     37  C   UNL     1      31.053   5.503 -22.036  0.00  0.00    +0.086 C 
ATOM     38  C   UNL     1      32.976   7.603 -21.572  0.00  0.00    -0.060 C 
ATOM     39  C   UNL     1      31.368   6.609 -23.076  0.00  0.00    -0.060 C 
ATOM     40  N   UNL     1      32.751   7.133 -22.959  0.00  0.00    +0.380 N 
ATOM     41  C   UNL     1      32.969   8.224 -23.905  0.00  0.00    -0.096 C 
ATOM     42  H   UNL     1      33.411   6.387 -23.179  0.00  0.00    -0.082 HD
ENDBRANCH  34  35
ENDBRANCH  28  29
ENDBRANCH  26  28
ENDBRANCH  10  24
TORSDOF 5
ENDMDL
MODEL 3
REMARK VINA RESULT:   -10.739      3.841     10.565
REMARK INTER + INTRA:         -14.654
REMARK INTER:                 -14.204
REMARK INTRA:                  -0.450
REMARK UNBOUND:                -0.776
REMARK  Name = CTX-1020838
REMARK  6 active torsions:
REMARK  status: ('A' for Active; 'I' for Inactive)
REMARK    1  A    between atoms: C_3  and  C_6
REMARK    2  A    between atoms: C_21  and  C_23
REMARK    3  A    between atoms: N_26  and  C_27
REMARK    4  A    between atoms: C_27  and  C_28
REMARK    5  A    between atoms: C_33  and  N_34
REMARK    6  A    between atoms: N_39  and  C_40
REMARK                            x       y       z     vdW  Elec       q    Type
REMARK                         _______ _______ _______ _____ _____    ______ ____
ROOT
ATOM      1  C   UNL     1      29.217   4.279 -22.199  0.00  0.00    +0.284 C 
ATOM      2  O   UNL     1      29.769   5.024 -23.026  0.00  0.00    -0.267 OA
ATOM      3  N   UNL     1      28.214   3.418 -22.762  0.00  0.00    -0.289 N 
ATOM      4  C   UNL     1      27.425   2.295 -22.151  0.00  0.00    +0.163 C 
ATOM      5  C   UNL     1      27.934   3.803 -24.150  0.00  0.00    +0.113 C 
ATOM      6  C   UNL     1      26.248   1.688 -22.997  0.00  0.00    +0.063 A 
ATOM      7  C   UNL     1      27.112   2.912 -25.041  0.00  0.00    +0.056 C 
ATOM      8  N   UNL     1      25.381   0.750 -22.447  0.00  0.00    -0.245 NA
ATOM      9  C   UNL     1      26.123   2.054 -24.343  0.00  0.00    -0.023 A 
ATOM     10  C   UNL     1      24.393   0.228 -23.275  0.00  0.00    +0.126 A 
ATOM     11  C   UNL     1      25.100   1.521 -25.136  0.00  0.00    +0.008 A 
ATOM     12  C   UNL     1      24.226   0.606 -24.599  0.00  0.00    +0.033 A 
ENDROOT
BRANCH   1  15
ATOM     13 CL   UNL     1      30.708   7.055 -21.091  0.00  0.00    -0.079 Cl
ATOM     14  C   UNL     1      30.259   5.605 -20.294  0.00  0.00    +0.099 A 
ATOM     15  C   UNL     1      29.658   4.449 -20.807  0.00  0.00    +0.209 A 
ATOM     16  C   UNL     1      30.443   5.454 -18.903  0.00  0.00    +0.042 A 
ATOM     17  O   UNL     1      29.496   3.557 -19.763  0.00  0.00    -0.446 OA
ATOM     18  C   UNL     1      29.979   4.169 -18.615  0.00  0.00    +0.172 A 
ATOM     19  C   UNL     1      30.947   6.268 -17.862  0.00  0.00    +0.013 A 
ATOM     20  C   UNL     1      30.024   3.664 -17.309  0.00  0.00    +0.166 A 
ATOM     21  C   UNL     1      30.986   5.783 -16.556  0.00  0.00    +0.004 A 
ATOM     22  F   UNL     1      29.610   2.429 -17.013  0.00  0.00    -0.202 F 
ATOM     23  C   UNL     1      30.537   4.491 -16.285  0.00  0.00    +0.042 A 
ENDBRANCH   1  15
BRANCH  10  24
ATOM     24  C   UNL     1      23.424  -0.848 -22.833  0.00  0.00    +0.263 C 
ATOM     25  O   UNL     1      22.316  -0.940 -23.381  0.00  0.00    -0.269 OA
ATOM     26  N   UNL     1      23.779  -1.710 -21.822  0.00  0.00    -0.306 N 
ATOM     27  H   UNL     1      24.672  -1.636 -21.414  0.00  0.00    +0.149 HD
BRANCH  26  28
ATOM     28  C   UNL     1      22.858  -2.734 -21.341  0.00  0.00    +0.140 C 
BRANCH  28  29
ATOM     29  C   UNL     1      21.946  -2.187 -20.276  0.00  0.00    -0.030 A 
ATOM     30  C   UNL     1      20.700  -2.769 -20.022  0.00  0.00    +0.007 A 
ATOM     31  C   UNL     1      22.308  -1.051 -19.550  0.00  0.00    +0.007 A 
ATOM     32  C   UNL     1      19.831  -2.203 -19.079  0.00  0.00    +0.023 A 
ATOM     33  C   UNL     1      21.421  -0.486 -18.625  0.00  0.00    +0.023 A 
ATOM     34  C   UNL     1      20.159  -1.040 -18.366  0.00  0.00    +0.030 A 
BRANCH  34  35
ATOM     35  N   UNL     1      19.303  -0.530 -17.410  0.00  0.00    -0.333 N 
ATOM     36  C   UNL     1      18.243   0.428 -17.751  0.00  0.00    +0.086 C 
ATOM     37  C   UNL     1      19.068  -1.235 -16.136  0.00  0.00    +0.086 C 
ATOM     38  C   UNL     1      18.075   1.435 -16.589  0.00  0.00    -0.060 C 
ATOM     39  C   UNL     1      18.872  -0.200 -15.000  0.00  0.00    -0.060 C 
ATOM     40  N   UNL     1      17.795   0.778 -15.291  0.00  0.00    +0.380 N 
ATOM     41  C   UNL     1      17.706   1.776 -14.229  0.00  0.00    -0.096 C 
ATOM     42  H   UNL     1      16.902   0.289 -15.341  0.00  0.00    -0.082 HD
ENDBRANCH  34  35
ENDBRANCH  28  29
ENDBRANCH  26  28
ENDBRANCH  10  24
TORSDOF 5
ENDMDL
MODEL 4
REMARK VINA RESULT:   -10.627      8.386     16.427
REMARK INTER + INTRA:         -14.509
REMARK INTER:                 -13.697
REMARK INTRA:                  -0.812
REMARK UNBOUND:                -0.776
REMARK  Name = CTX-1020838
REMARK  6 active torsions:
REMARK  status: ('A' for Active; 'I' for Inactive)
REMARK    1  A    between atoms: C_3  and  C_6
REMARK    2  A    between atoms: C_21  and  C_23
REMARK    3  A    between atoms: N_26  and  C_27
REMARK    4  A    between atoms: C_27  and  C_28
REMARK    5  A    between atoms: C_33  and  N_34
REMARK    6  A    between atoms: N_39  and  C_40
REMARK                            x       y       z     vdW  Elec       q    Type
REMARK                         _______ _______ _______ _____ _____    ______ ____
ROOT
ATOM      1  C   UNL     1      35.091   8.820 -27.395  0.00  0.00    +0.284 C 
ATOM      2  O   UNL     1      34.551   8.861 -28.512  0.00  0.00    -0.267 OA
ATOM      3  N   UNL     1      34.256   8.284 -26.357  0.00  0.00    -0.289 N 
ATOM      4  C   UNL     1      34.561   7.940 -24.926  0.00  0.00    +0.163 C 
ATOM      5  C   UNL     1      32.879   8.129 -26.841  0.00  0.00    +0.113 C 
ATOM      6  C   UNL     1      33.352   7.563 -23.995  0.00  0.00    +0.063 A 
ATOM      7  C   UNL     1      31.867   7.359 -26.039  0.00  0.00    +0.056 C 
ATOM      8  N   UNL     1      33.533   7.375 -22.629  0.00  0.00    -0.245 NA
ATOM      9  C   UNL     1      32.094   7.347 -24.573  0.00  0.00    -0.023 A 
ATOM     10  C   UNL     1      32.422   6.998 -21.882  0.00  0.00    +0.126 A 
ATOM     11  C   UNL     1      30.997   6.990 -23.780  0.00  0.00    +0.008 A 
ATOM     12  C   UNL     1      31.159   6.819 -22.426  0.00  0.00    +0.033 A 
ENDROOT
BRANCH   1  15
ATOM     13 CL   UNL     1      37.810   6.979 -28.007  0.00  0.00    -0.079 Cl
ATOM     14  C   UNL     1      37.620   8.637 -27.614  0.00  0.00    +0.099 A 
ATOM     15  C   UNL     1      36.456   9.365 -27.336  0.00  0.00    +0.209 A 
ATOM     16  C   UNL     1      38.732   9.505 -27.569  0.00  0.00    +0.042 A 
ATOM     17  O   UNL     1      36.826  10.672 -27.080  0.00  0.00    -0.446 OA
ATOM     18  C   UNL     1      38.204  10.748 -27.217  0.00  0.00    +0.172 A 
ATOM     19  C   UNL     1      40.121   9.370 -27.795  0.00  0.00    +0.013 A 
ATOM     20  C   UNL     1      39.037  11.864 -27.061  0.00  0.00    +0.166 A 
ATOM     21  C   UNL     1      40.959  10.475 -27.656  0.00  0.00    +0.004 A 
ATOM     22  F   UNL     1      38.559  13.059 -26.699  0.00  0.00    -0.202 F 
ATOM     23  C   UNL     1      40.423  11.707 -27.284  0.00  0.00    +0.042 A 
ENDBRANCH   1  15
BRANCH  10  24
ATOM     24  C   UNL     1      32.484   6.693 -20.400  0.00  0.00    +0.263 C 
ATOM     25  O   UNL     1      33.586   6.589 -19.839  0.00  0.00    -0.269 OA
ATOM     26  N   UNL     1      31.318   6.529 -19.689  0.00  0.00    -0.306 N 
ATOM     27  H   UNL     1      30.454   6.638 -20.147  0.00  0.00    +0.149 HD
BRANCH  26  28
ATOM     28  C   UNL     1      31.338   6.196 -18.270  0.00  0.00    +0.140 C 
BRANCH  28  29
ATOM     29  C   UNL     1      30.112   5.415 -17.878  0.00  0.00    -0.030 A 
ATOM     30  C   UNL     1      29.201   5.920 -16.946  0.00  0.00    +0.007 A 
ATOM     31  C   UNL     1      29.885   4.143 -18.405  0.00  0.00    +0.007 A 
ATOM     32  C   UNL     1      28.104   5.149 -16.535  0.00  0.00    +0.023 A 
ATOM     33  C   UNL     1      28.796   3.377 -17.971  0.00  0.00    +0.023 A 
ATOM     34  C   UNL     1      27.879   3.854 -17.024  0.00  0.00    +0.030 A 
BRANCH  34  35
ATOM     35  N   UNL     1      26.766   3.133 -16.637  0.00  0.00    -0.333 N 
ATOM     36  C   UNL     1      26.011   2.303 -17.585  0.00  0.00    +0.086 C 
ATOM     37  C   UNL     1      26.548   2.757 -15.227  0.00  0.00    +0.086 C 
ATOM     38  C   UNL     1      24.508   2.363 -17.228  0.00  0.00    -0.060 C 
ATOM     39  C   UNL     1      25.032   2.796 -14.910  0.00  0.00    -0.060 C 
ATOM     40  N   UNL     1      24.229   1.955 -15.831  0.00  0.00    +0.380 N 
ATOM     41  C   UNL     1      22.804   2.089 -15.540  0.00  0.00    -0.096 C 
ATOM     42  H   UNL     1      24.487   0.977 -15.703  0.00  0.00    -0.082 HD
ENDBRANCH  34  35
ENDBRANCH  28  29
ENDBRANCH  26  28
ENDBRANCH  10  24
TORSDOF 5
ENDMDL
MODEL 5
REMARK VINA RESULT:   -10.356      9.978     18.424
REMARK INTER + INTRA:         -14.159
REMARK INTER:                 -13.308
REMARK INTRA:                  -0.851
REMARK UNBOUND:                -0.776
REMARK  Name = CTX-1020838
REMARK  6 active torsions:
REMARK  status: ('A' for Active; 'I' for Inactive)
REMARK    1  A    between atoms: C_3  and  C_6
REMARK    2  A    between atoms: C_21  and  C_23
REMARK    3  A    between atoms: N_26  and  C_27
REMARK    4  A    between atoms: C_27  and  C_28
REMARK    5  A    between atoms: C_33  and  N_34
REMARK    6  A    between atoms: N_39  and  C_40
REMARK                            x       y       z     vdW  Elec       q    Type
REMARK                         _______ _______ _______ _____ _____    ______ ____
ROOT
ATOM      1  C   UNL     1      39.094  10.617 -28.400  0.00  0.00    +0.284 C 
ATOM      2  O   UNL     1      39.357  10.392 -29.593  0.00  0.00    -0.267 OA
ATOM      3  N   UNL     1      37.957   9.895 -27.902  0.00  0.00    -0.289 N 
ATOM      4  C   UNL     1      37.398   9.776 -26.513  0.00  0.00    +0.163 C 
ATOM      5  C   UNL     1      37.247   9.238 -29.007  0.00  0.00    +0.113 C 
ATOM      6  C   UNL     1      36.005   9.065 -26.347  0.00  0.00    +0.063 A 
ATOM      7  C   UNL     1      36.175   8.221 -28.731  0.00  0.00    +0.056 C 
ATOM      8  N   UNL     1      35.354   9.044 -25.119  0.00  0.00    -0.245 NA
ATOM      9  C   UNL     1      35.457   8.388 -27.444  0.00  0.00    -0.023 A 
ATOM     10  C   UNL     1      34.148   8.356 -25.044  0.00  0.00    +0.126 A 
ATOM     11  C   UNL     1      34.229   7.726 -27.331  0.00  0.00    +0.008 A 
ATOM     12  C   UNL     1      33.566   7.713 -26.127  0.00  0.00    +0.033 A 
ENDROOT
BRANCH   1  15
ATOM     13 CL   UNL     1      39.542  13.712 -29.574  0.00  0.00    -0.079 Cl
ATOM     14  C   UNL     1      40.154  12.920 -28.182  0.00  0.00    +0.099 A 
ATOM     15  C   UNL     1      39.962  11.604 -27.741  0.00  0.00    +0.209 A 
ATOM     16  C   UNL     1      40.957  13.609 -27.248  0.00  0.00    +0.042 A 
ATOM     17  O   UNL     1      40.664  11.446 -26.561  0.00  0.00    -0.446 OA
ATOM     18  C   UNL     1      41.269  12.661 -26.271  0.00  0.00    +0.172 A 
ATOM     19  C   UNL     1      41.445  14.931 -27.125  0.00  0.00    +0.013 A 
ATOM     20  C   UNL     1      42.079  12.995 -25.179  0.00  0.00    +0.166 A 
ATOM     21  C   UNL     1      42.241  15.279 -26.035  0.00  0.00    +0.004 A 
ATOM     22  F   UNL     1      42.412  12.099 -24.244  0.00  0.00    -0.202 F 
ATOM     23  C   UNL     1      42.562  14.319 -25.077  0.00  0.00    +0.042 A 
ENDBRANCH   1  15
BRANCH  10  24
ATOM     24  C   UNL     1      33.364   8.193 -23.759  0.00  0.00    +0.263 C 
ATOM     25  O   UNL     1      33.065   9.194 -23.091  0.00  0.00    -0.269 OA
ATOM     26  N   UNL     1      32.996   6.935 -23.341  0.00  0.00    -0.306 N 
ATOM     27  H   UNL     1      33.223   6.155 -23.897  0.00  0.00    +0.149 HD
BRANCH  26  28
ATOM     28  C   UNL     1      32.276   6.735 -22.089  0.00  0.00    +0.140 C 
BRANCH  28  29
ATOM     29  C   UNL     1      31.019   5.936 -22.308  0.00  0.00    -0.030 A 
ATOM     30  C   UNL     1      30.798   4.734 -21.629  0.00  0.00    +0.007 A 
ATOM     31  C   UNL     1      30.065   6.359 -23.236  0.00  0.00    +0.007 A 
ATOM     32  C   UNL     1      29.658   3.965 -21.899  0.00  0.00    +0.023 A 
ATOM     33  C   UNL     1      28.940   5.570 -23.508  0.00  0.00    +0.023 A 
ATOM     34  C   UNL     1      28.706   4.352 -22.854  0.00  0.00    +0.030 A 
BRANCH  34  35
ATOM     35  N   UNL     1      27.569   3.598 -23.068  0.00  0.00    -0.333 N 
ATOM     36  C   UNL     1      27.208   2.475 -22.194  0.00  0.00    +0.086 C 
ATOM     37  C   UNL     1      26.430   4.132 -23.838  0.00  0.00    +0.086 C 
ATOM     38  C   UNL     1      26.550   1.362 -23.042  0.00  0.00    -0.060 C 
ATOM     39  C   UNL     1      25.774   2.987 -24.651  0.00  0.00    -0.060 C 
ATOM     40  N   UNL     1      25.373   1.836 -23.806  0.00  0.00    +0.380 N 
ATOM     41  C   UNL     1      24.835   0.756 -24.629  0.00  0.00    -0.096 C 
ATOM     42  H   UNL     1      24.643   2.133 -23.159  0.00  0.00    -0.082 HD
ENDBRANCH  34  35
ENDBRANCH  28  29
ENDBRANCH  26  28
ENDBRANCH  10  24
TORSDOF 5
ENDMDL
