REMARK  Name = CTX-1020440
REMARK  6 active torsions:
REMARK  status: ('A' for Active; 'I' for Inactive)
REMARK    1  A    between atoms: C_2  and  C_4
REMARK    2  A    between atoms: N_9  and  C_12
REMARK    3  A    between atoms: C_12  and  C_14
REMARK    4  A    between atoms: C_15  and  C_19
REMARK    5  A    between atoms: C_24  and  N_28
REMARK    6  A    between atoms: N_36  and  C_37
REMARK                            x       y       z     vdW  Elec       q    Type
REMARK                         _______ _______ _______ _____ _____    ______ ____
ROOT
ATOM      1  S   UNL     1       1.818  -0.693  -0.054  0.00  0.00    -0.088 S 
ATOM      2  C   UNL     1       2.159   0.986   0.033  0.00  0.00    +0.074 A 
ATOM      3  C   UNL     1       0.138  -0.423   0.004  0.00  0.00    -0.003 A 
ATOM      4  C   UNL     1       0.987   1.726   0.091  0.00  0.00    +0.026 A 
ATOM      5  C   UNL     1      -0.185   0.918   0.096  0.00  0.00    -0.019 A 
ATOM      6  C   UNL     1      -0.881  -1.527  -0.080  0.00  0.00    +0.062 C 
ATOM      7  C   UNL     1      -1.604   1.402   0.203  0.00  0.00    +0.144 C 
ATOM      8  C   UNL     1      -2.275  -0.967   0.280  0.00  0.00    +0.113 C 
ATOM      9  N   UNL     1      -2.480   0.356  -0.339  0.00  0.00    -0.293 N 
ATOM     10  C   UNL     1      -3.433   0.498  -1.345  0.00  0.00    +0.251 C 
ATOM     11  O   UNL     1      -4.233  -0.402  -1.596  0.00  0.00    -0.270 OA
ENDROOT
BRANCH  10  12
ATOM     12  C   UNL     1      -3.493   1.736  -2.107  0.00  0.00    +0.083 A 
ATOM     13  C   UNL     1      -4.630   2.307  -2.649  0.00  0.00    +0.097 A 
ATOM     14  C   UNL     1      -2.469   2.587  -2.581  0.00  0.00    +0.148 A 
ATOM     15  N   UNL     1      -4.260   3.483  -3.269  0.00  0.00    -0.236 N 
ATOM     16  C   UNL     1      -6.020   1.942  -2.683  0.00  0.00    +0.139 A 
ATOM     17  N   UNL     1      -2.923   3.668  -3.216  0.00  0.00    -0.174 NA
ATOM     18  C   UNL     1      -5.226   4.287  -3.847  0.00  0.00    +0.132 A 
ATOM     19  N   UNL     1      -6.923   2.700  -3.246  0.00  0.00    -0.260 NA
ATOM     20  C   UNL     1      -6.505   3.884  -3.822  0.00  0.00    +0.130 A 
ENDBRANCH  10  12
BRANCH   2  21
ATOM     21  C   UNL     1       3.510   1.541   0.054  0.00  0.00    +0.251 C 
ATOM     22  O   UNL     1       3.710   2.752   0.104  0.00  0.00    -0.270 OA
ATOM     23  N   UNL     1       4.555   0.643   0.030  0.00  0.00    -0.307 N 
ATOM     24  H   UNL     1       4.355  -0.319  -0.037  0.00  0.00    +0.149 HD
BRANCH  23  25
ATOM     25  C   UNL     1       5.939   1.068   0.101  0.00  0.00    +0.139 C 
BRANCH  25  26
ATOM     26  C   UNL     1       6.723   0.654  -1.117  0.00  0.00    -0.030 A 
ATOM     27  C   UNL     1       6.325   1.079  -2.385  0.00  0.00    +0.007 A 
ATOM     28  C   UNL     1       7.900  -0.100  -1.010  0.00  0.00    +0.007 A 
ATOM     29  C   UNL     1       7.067   0.727  -3.513  0.00  0.00    +0.023 A 
ATOM     30  C   UNL     1       8.646  -0.441  -2.152  0.00  0.00    +0.023 A 
ATOM     31  C   UNL     1       8.232  -0.054  -3.430  0.00  0.00    +0.030 A 
BRANCH  31  32
ATOM     32  N   UNL     1       8.916  -0.354  -4.599  0.00  0.00    -0.333 N 
ATOM     33  C   UNL     1      10.347  -0.698  -4.604  0.00  0.00    +0.086 C 
ATOM     34  C   UNL     1       8.154  -1.109  -5.615  0.00  0.00    +0.086 C 
ATOM     35  C   UNL     1      10.921  -0.437  -6.025  0.00  0.00    -0.060 C 
ATOM     36  C   UNL     1       8.747  -0.823  -7.011  0.00  0.00    -0.060 C 
ATOM     37  N   UNL     1      10.187  -1.163  -7.092  0.00  0.00    +0.380 N 
ATOM     38  C   UNL     1      10.710  -0.819  -8.412  0.00  0.00    -0.096 C 
ATOM     39  H   UNL     1      10.312  -2.167  -6.955  0.00  0.00    -0.082 HD
ENDBRANCH  31  32
ENDBRANCH  25  26
ENDBRANCH  23  25
ENDBRANCH   2  21
TORSDOF 5
