REMARK  Name = CTX-1019660
REMARK  6 active torsions:
REMARK  status: ('A' for Active; 'I' for Inactive)
REMARK    1  A    between atoms: C_2  and  C_4
REMARK    2  A    between atoms: N_3  and  C_5
REMARK    3  A    between atoms: C_5  and  C_8
REMARK    4  A    between atoms: C_19  and  N_22
REMARK    5  A    between atoms: C_21  and  C_24
REMARK    6  A    between atoms: N_34  and  C_37
REMARK                            x       y       z     vdW  Elec       q    Type
REMARK                         _______ _______ _______ _____ _____    ______ ____
ROOT
ATOM      1  C   UNL     1       3.219  -1.177  -0.629  0.00  0.00    +0.126 A 
ATOM      2  N   UNL     1       4.593  -1.267  -0.441  0.00  0.00    -0.245 NA
ATOM      3  C   UNL     1       2.476  -2.105  -1.336  0.00  0.00    +0.033 A 
ATOM      4  C   UNL     1       5.260  -2.408  -0.927  0.00  0.00    +0.063 A 
ATOM      5  C   UNL     1       3.178  -3.174  -1.916  0.00  0.00    +0.008 A 
ATOM      6  C   UNL     1       4.585  -3.332  -1.731  0.00  0.00    -0.023 A 
ATOM      7  C   UNL     1       6.817  -2.702  -0.573  0.00  0.00    +0.163 C 
ATOM      8  C   UNL     1       5.315  -4.535  -2.304  0.00  0.00    +0.056 C 
ATOM      9  N   UNL     1       7.385  -4.263  -0.741  0.00  0.00    -0.291 N 
ATOM     10  C   UNL     1       6.905  -4.562  -2.181  0.00  0.00    +0.113 C 
ATOM     11  C   UNL     1       8.340  -5.049   0.476  0.00  0.00    +0.251 C 
ATOM     12  O   UNL     1       8.427  -4.287   1.461  0.00  0.00    -0.270 OA
ENDROOT
BRANCH  11  13
ATOM     13  C   UNL     1       9.476  -6.489   0.580  0.00  0.00    +0.083 A 
ATOM     14  C   UNL     1      10.766  -7.521   1.213  0.00  0.00    +0.097 A 
ATOM     15  C   UNL     1      10.152  -6.395  -0.606  0.00  0.00    +0.148 A 
ATOM     16  N   UNL     1      10.949  -8.193  -0.012  0.00  0.00    -0.236 N 
ATOM     17  C   UNL     1      12.049  -8.367   2.209  0.00  0.00    +0.139 A 
ATOM     18  N   UNL     1      10.284  -7.619  -1.042  0.00  0.00    -0.174 NA
ATOM     19  C   UNL     1      11.929  -9.133  -0.259  0.00  0.00    +0.132 A 
ATOM     20  N   UNL     1      13.238  -9.151   1.675  0.00  0.00    -0.260 NA
ATOM     21  C   UNL     1      13.157  -9.137   0.284  0.00  0.00    +0.130 A 
ENDBRANCH  11  13
BRANCH   1  23
ATOM     22  O   UNL     1       1.214  -0.008  -0.087  0.00  0.00    -0.269 OA
ATOM     23  C   UNL     1       2.384  -0.057   0.051  0.00  0.00    +0.263 C 
ATOM     24  N   UNL     1       3.111   0.884   0.827  0.00  0.00    -0.306 N 
ATOM     25  H   UNL     1       4.085   0.779   0.932  0.00  0.00    +0.149 HD
BRANCH  24  26
ATOM     26  C   UNL     1       2.430   2.013   1.475  0.00  0.00    +0.140 C 
BRANCH  26  27
ATOM     27  C   UNL     1       2.921   3.375   1.000  0.00  0.00    -0.030 A 
ATOM     28  C   UNL     1       2.300   4.019  -0.071  0.00  0.00    +0.007 A 
ATOM     29  C   UNL     1       4.029   4.001   1.589  0.00  0.00    +0.007 A 
ATOM     30  C   UNL     1       2.773   5.245  -0.552  0.00  0.00    +0.023 A 
ATOM     31  C   UNL     1       4.566   5.171   1.035  0.00  0.00    +0.023 A 
ATOM     32  C   UNL     1       3.921   5.843  -0.023  0.00  0.00    +0.030 A 
BRANCH  32  33
ATOM     33  N   UNL     1       4.361   7.065  -0.482  0.00  0.00    -0.333 N 
ATOM     34  C   UNL     1       5.088   7.974   0.398  0.00  0.00    +0.086 C 
ATOM     35  C   UNL     1       4.360   7.424  -1.909  0.00  0.00    +0.086 C 
ATOM     36  C   UNL     1       4.585   9.418   0.183  0.00  0.00    -0.060 C 
ATOM     37  C   UNL     1       3.906   8.893  -2.067  0.00  0.00    -0.060 C 
ATOM     38  N   UNL     1       4.717   9.822  -1.240  0.00  0.00    +0.380 N 
ATOM     39  C   UNL     1       4.302  11.204  -1.431  0.00  0.00    -0.096 C 
ATOM     40  H   UNL     1       5.694   9.767  -1.526  0.00  0.00    -0.082 HD
ENDBRANCH  32  33
ENDBRANCH  26  27
ENDBRANCH  24  26
ENDBRANCH   1  23
TORSDOF 5
