REMARK  Name = CTX-1019757
REMARK  7 active torsions:
REMARK  status: ('A' for Active; 'I' for Inactive)
REMARK    1  A    between atoms: C_2  and  C_4
REMARK    2  A    between atoms: N_3  and  C_5
REMARK    3  A    between atoms: C_5  and  C_8
REMARK    4  A    between atoms: C_19  and  N_22
REMARK    5  A    between atoms: C_21  and  C_24
REMARK    6  A    between atoms: C_28  and  C_33
REMARK    7  A    between atoms: N_34  and  C_37
REMARK                            x       y       z     vdW  Elec       q    Type
REMARK                         _______ _______ _______ _____ _____    ______ ____
ROOT
ATOM      1  C   UNL     1       2.965  -0.443  -1.135  0.00  0.00    +0.037 A 
ATOM      2  C   UNL     1       2.599  -0.041  -2.433  0.00  0.00    +0.018 A 
ATOM      3  C   UNL     1       4.053  -1.315  -0.970  0.00  0.00    +0.013 A 
ATOM      4  C   UNL     1       3.341  -0.471  -3.547  0.00  0.00    -0.026 A 
ATOM      5  C   UNL     1       4.794  -1.748  -2.073  0.00  0.00    +0.005 A 
ATOM      6  C   UNL     1       4.455  -1.310  -3.354  0.00  0.00    -0.041 A 
ATOM      7  C   UNL     1       2.947  -0.123  -4.971  0.00  0.00    +0.143 C 
ATOM      8  C   UNL     1       5.240  -1.713  -4.578  0.00  0.00    +0.054 C 
ATOM      9  N   UNL     1       4.095   0.091  -5.854  0.00  0.00    -0.290 N 
ATOM     10  C   UNL     1       5.387  -0.496  -5.498  0.00  0.00    +0.113 C 
ATOM     11  C   UNL     1       3.899   0.805  -7.040  0.00  0.00    +0.283 C 
ATOM     12  O   UNL     1       2.803   0.793  -7.601  0.00  0.00    -0.267 OA
ENDROOT
BRANCH  11  13
ATOM     13  C   UNL     1       4.952   1.765  -7.415  0.00  0.00    +0.194 A 
ATOM     14  O   UNL     1       5.644   2.305  -6.348  0.00  0.00    -0.450 OA
ATOM     15  C   UNL     1       4.897   2.761  -8.396  0.00  0.00    +0.008 A 
ATOM     16  C   UNL     1       5.268   3.608  -6.351  0.00  0.00    +0.136 A 
ATOM     17  C   UNL     1       4.732   3.932  -7.592  0.00  0.00    +0.024 A 
ATOM     18  C   UNL     1       4.647   2.652  -9.853  0.00  0.00    +0.048 C 
ATOM     19  C   UNL     1       5.278   4.442  -5.244  0.00  0.00    +0.047 A 
ATOM     20  C   UNL     1       4.124   5.188  -7.752  0.00  0.00    +0.012 A 
ATOM     21  C   UNL     1       4.574   5.638  -5.390  0.00  0.00    +0.004 A 
ATOM     22  C   UNL     1       3.996   5.998  -6.615  0.00  0.00    +0.001 A 
ENDBRANCH  11  13
BRANCH   1  24
ATOM     23  O   UNL     1       2.230  -0.719   1.097  0.00  0.00    -0.270 OA
ATOM     24  C   UNL     1       2.226  -0.007   0.089  0.00  0.00    +0.244 C 
ATOM     25  N   UNL     1       1.578   1.206   0.031  0.00  0.00    -0.307 N 
ATOM     26  H   UNL     1       1.663   1.763  -0.776  0.00  0.00    +0.149 HD
BRANCH  25  27
ATOM     27  C   UNL     1       0.777   1.671   1.138  0.00  0.00    +0.139 C 
BRANCH  27  28
ATOM     28  C   UNL     1       0.692   3.173   1.181  0.00  0.00    -0.030 A 
ATOM     29  C   UNL     1      -0.296   3.849   0.475  0.00  0.00    +0.007 A 
ATOM     30  C   UNL     1       1.601   3.920   1.938  0.00  0.00    +0.007 A 
ATOM     31  C   UNL     1      -0.398   5.245   0.561  0.00  0.00    +0.023 A 
ATOM     32  C   UNL     1       1.487   5.318   2.023  0.00  0.00    +0.023 A 
ATOM     33  C   UNL     1       0.482   6.014   1.340  0.00  0.00    +0.030 A 
BRANCH  33  34
ATOM     34  N   UNL     1       0.291   7.378   1.456  0.00  0.00    -0.333 N 
ATOM     35  C   UNL     1       0.795   8.161   2.595  0.00  0.00    +0.086 C 
ATOM     36  C   UNL     1       0.061   8.192   0.251  0.00  0.00    +0.086 C 
ATOM     37  C   UNL     1      -0.189   9.327   2.886  0.00  0.00    -0.060 C 
ATOM     38  C   UNL     1      -0.926   9.332   0.584  0.00  0.00    -0.060 C 
ATOM     39  N   UNL     1      -0.451  10.181   1.702  0.00  0.00    +0.380 N 
ATOM     40  C   UNL     1      -1.442  11.209   2.015  0.00  0.00    -0.096 C 
ATOM     41  H   UNL     1       0.413  10.650   1.430  0.00  0.00    -0.082 HD
ENDBRANCH  33  34
ENDBRANCH  27  28
ENDBRANCH  25  27
ENDBRANCH   1  24
TORSDOF 5
