REMARK  Name = CTX-1019904
REMARK  9 active torsions:
REMARK  status: ('A' for Active; 'I' for Inactive)
REMARK    1  A    between atoms: C_2  and  C_4
REMARK    2  A    between atoms: N_3  and  C_5
REMARK    3  A    between atoms: C_5  and  C_8
REMARK    4  A    between atoms: C_19  and  N_22
REMARK    5  A    between atoms: C_21  and  C_24
REMARK    6  A    between atoms: C_28  and  C_33
REMARK    7  A    between atoms: N_34  and  C_37
REMARK    8  A    between atoms: C_35  and  O_38
REMARK    9  A    between atoms: O_38  and  C_41
REMARK                            x       y       z     vdW  Elec       q    Type
REMARK                         _______ _______ _______ _____ _____    ______ ____
ROOT
ATOM      1  C   UNL     1       3.037   0.781   1.098  0.00  0.00    +0.126 A 
ATOM      2  N   UNL     1       4.188   1.404   0.708  0.00  0.00    -0.245 NA
ATOM      3  C   UNL     1       2.517   0.848   2.386  0.00  0.00    +0.033 A 
ATOM      4  C   UNL     1       4.821   2.154   1.647  0.00  0.00    +0.063 A 
ATOM      5  C   UNL     1       3.200   1.598   3.332  0.00  0.00    +0.008 A 
ATOM      6  C   UNL     1       4.370   2.262   2.970  0.00  0.00    -0.023 A 
ATOM      7  C   UNL     1       6.048   2.913   1.181  0.00  0.00    +0.163 C 
ATOM      8  C   UNL     1       5.060   3.143   3.973  0.00  0.00    +0.056 C 
ATOM      9  N   UNL     1       6.484   3.939   2.110  0.00  0.00    -0.289 N 
ATOM     10  C   UNL     1       6.448   3.574   3.524  0.00  0.00    +0.113 C 
ATOM     11  C   UNL     1       7.216   5.069   1.767  0.00  0.00    +0.283 C 
ATOM     12  O   UNL     1       7.451   5.901   2.651  0.00  0.00    -0.267 OA
ENDROOT
BRANCH  11  13
ATOM     13  C   UNL     1       7.752   5.274   0.406  0.00  0.00    +0.194 A 
ATOM     14  O   UNL     1       8.835   6.143   0.463  0.00  0.00    -0.446 OA
ATOM     15  C   UNL     1       7.140   5.601  -0.809  0.00  0.00    +0.008 A 
ATOM     16  C   UNL     1       8.372   7.311  -0.070  0.00  0.00    +0.178 A 
ATOM     17  C   UNL     1       7.261   7.024  -0.856  0.00  0.00    +0.027 A 
ATOM     18  C   UNL     1       6.632   4.741  -1.905  0.00  0.00    +0.048 C 
ATOM     19  C   UNL     1       8.892   8.590   0.139  0.00  0.00    +0.163 A 
ATOM     20  C   UNL     1       6.620   8.081  -1.524  0.00  0.00    +0.012 A 
ATOM     21  C   UNL     1       8.164   9.632  -0.441  0.00  0.00    +0.049 A 
ATOM     22  C   UNL     1       7.049   9.388  -1.253  0.00  0.00    +0.004 A 
BRANCH  19  23
ATOM     23  O   UNL     1       9.995   8.945   0.892  0.00  0.00    -0.491 OA
ATOM     24  C   UNL     1      10.721   7.866   1.475  0.00  0.00    +0.277 C 
ENDBRANCH  19  23
ENDBRANCH  11  13
BRANCH   1  26
ATOM     25  O   UNL     1       1.215  -0.536   0.369  0.00  0.00    -0.269 OA
ATOM     26  C   UNL     1       2.290  -0.010   0.079  0.00  0.00    +0.263 C 
ATOM     27  N   UNL     1       2.861  -0.134  -1.167  0.00  0.00    -0.304 N 
ATOM     28  H   UNL     1       3.714   0.317  -1.362  0.00  0.00    +0.149 HD
BRANCH  27  29
ATOM     29  C   UNL     1       2.217  -0.920  -2.190  0.00  0.00    +0.160 C 
BRANCH  29  30
ATOM     30  C   UNL     1       2.959  -0.943  -3.505  0.00  0.00    +0.058 A 
ATOM     31  N   UNL     1       4.093  -0.211  -3.620  0.00  0.00    -0.256 NA
ATOM     32  C   UNL     1       2.461  -1.716  -4.555  0.00  0.00    +0.027 A 
ATOM     33  C   UNL     1       4.736  -0.274  -4.814  0.00  0.00    +0.134 A 
ATOM     34  C   UNL     1       3.159  -1.752  -5.764  0.00  0.00    +0.026 A 
ATOM     35  C   UNL     1       4.333  -1.019  -5.929  0.00  0.00    +0.048 A 
BRANCH  35  36
ATOM     36  N   UNL     1       5.109  -1.051  -7.077  0.00  0.00    -0.332 N 
ATOM     37  C   UNL     1       5.027  -2.186  -8.009  0.00  0.00    +0.086 C 
ATOM     38  C   UNL     1       5.359   0.231  -7.766  0.00  0.00    +0.086 C 
ATOM     39  C   UNL     1       6.352  -2.270  -8.806  0.00  0.00    -0.060 C 
ATOM     40  C   UNL     1       6.662   0.124  -8.595  0.00  0.00    -0.060 C 
ATOM     41  N   UNL     1       6.662  -1.020  -9.539  0.00  0.00    +0.380 N 
ATOM     42  C   UNL     1       7.961  -1.132 -10.201  0.00  0.00    -0.096 C 
ATOM     43  H   UNL     1       5.949  -0.863 -10.251  0.00  0.00    -0.082 HD
ENDBRANCH  35  36
ENDBRANCH  29  30
ENDBRANCH  27  29
ENDBRANCH   1  26
TORSDOF 6
