REMARK  Name = CTX-1020453
REMARK  6 active torsions:
REMARK  status: ('A' for Active; 'I' for Inactive)
REMARK    1  A    between atoms: C_3  and  C_6
REMARK    2  A    between atoms: C_20  and  C_22
REMARK    3  A    between atoms: N_25  and  C_26
REMARK    4  A    between atoms: C_26  and  C_27
REMARK    5  A    between atoms: C_32  and  N_33
REMARK    6  A    between atoms: N_38  and  C_39
REMARK                            x       y       z     vdW  Elec       q    Type
REMARK                         _______ _______ _______ _____ _____    ______ ____
ROOT
ATOM      1  C   UNL     1       2.374  -3.044   0.082  0.00  0.00    +0.284 C 
ATOM      2  O   UNL     1       1.131  -3.027   0.216  0.00  0.00    -0.267 OA
ATOM      3  N   UNL     1       2.923  -4.447   0.245  0.00  0.00    -0.289 N 
ATOM      4  C   UNL     1       2.135  -5.795   0.573  0.00  0.00    +0.163 C 
ATOM      5  C   UNL     1       4.254  -4.587  -0.185  0.00  0.00    +0.113 C 
ATOM      6  C   UNL     1       2.880  -7.229   0.281  0.00  0.00    +0.063 A 
ATOM      7  C   UNL     1       4.995  -5.910  -0.150  0.00  0.00    +0.056 C 
ATOM      8  N   UNL     1       2.278  -8.497   0.445  0.00  0.00    -0.245 NA
ATOM      9  C   UNL     1       4.219  -7.171  -0.089  0.00  0.00    -0.023 A 
ATOM     10  C   UNL     1       3.067  -9.652   0.228  0.00  0.00    +0.126 A 
ATOM     11  C   UNL     1       4.966  -8.341  -0.331  0.00  0.00    +0.008 A 
ATOM     12  C   UNL     1       4.406  -9.587  -0.147  0.00  0.00    +0.033 A 
ENDROOT
BRANCH   1  15
ATOM     13 CL   UNL     1       0.750  -0.106  -0.453  0.00  0.00    -0.079 Cl
ATOM     14  C   UNL     1       2.450  -0.355  -0.466  0.00  0.00    +0.099 A 
ATOM     15  C   UNL     1       3.123  -1.587  -0.266  0.00  0.00    +0.209 A 
ATOM     16  C   UNL     1       3.347   0.774  -0.702  0.00  0.00    +0.039 A 
ATOM     17  O   UNL     1       4.545  -1.190  -0.423  0.00  0.00    -0.449 OA
ATOM     18  C   UNL     1       4.655   0.276  -0.691  0.00  0.00    +0.137 A 
ATOM     19  C   UNL     1       3.175   2.209  -0.936  0.00  0.00    +0.013 A 
ATOM     20  C   UNL     1       5.753   1.248  -0.932  0.00  0.00    +0.047 A 
ATOM     21  C   UNL     1       4.247   3.136  -1.140  0.00  0.00    +0.001 A 
ATOM     22  C   UNL     1       5.535   2.657  -1.144  0.00  0.00    +0.004 A 
ENDBRANCH   1  15
BRANCH  10  23
ATOM     23  C   UNL     1       2.601 -11.134   0.351  0.00  0.00    +0.263 C 
ATOM     24  O   UNL     1       3.387 -12.056   0.159  0.00  0.00    -0.269 OA
ATOM     25  N   UNL     1       1.276 -11.396   0.675  0.00  0.00    -0.306 N 
ATOM     26  H   UNL     1       0.672 -10.646   0.881  0.00  0.00    +0.149 HD
BRANCH  25  27
ATOM     27  C   UNL     1       0.758 -12.773   0.717  0.00  0.00    +0.140 C 
BRANCH  27  28
ATOM     28  C   UNL     1      -0.398 -12.911   1.672  0.00  0.00    -0.030 A 
ATOM     29  C   UNL     1      -1.721 -12.765   1.276  0.00  0.00    +0.007 A 
ATOM     30  C   UNL     1      -0.155 -13.150   3.040  0.00  0.00    +0.007 A 
ATOM     31  C   UNL     1      -2.742 -12.705   2.210  0.00  0.00    +0.023 A 
ATOM     32  C   UNL     1      -1.203 -13.182   3.962  0.00  0.00    +0.023 A 
ATOM     33  C   UNL     1      -2.525 -12.933   3.588  0.00  0.00    +0.030 A 
BRANCH  33  34
ATOM     34  N   UNL     1      -3.543 -12.865   4.492  0.00  0.00    -0.333 N 
ATOM     35  C   UNL     1      -4.899 -13.322   4.141  0.00  0.00    +0.086 C 
ATOM     36  C   UNL     1      -3.312 -12.728   5.939  0.00  0.00    +0.086 C 
ATOM     37  C   UNL     1      -5.925 -12.367   4.767  0.00  0.00    -0.060 C 
ATOM     38  C   UNL     1      -4.381 -11.798   6.540  0.00  0.00    -0.060 C 
ATOM     39  N   UNL     1      -5.729 -12.281   6.223  0.00  0.00    +0.380 N 
ATOM     40  C   UNL     1      -6.750 -11.421   6.811  0.00  0.00    -0.096 C 
ATOM     41  H   UNL     1      -5.823 -13.214   6.624  0.00  0.00    -0.082 HD
ENDBRANCH  33  34
ENDBRANCH  27  28
ENDBRANCH  25  27
ENDBRANCH  10  23
TORSDOF 5
