REMARK  Name = CTX-1020441
REMARK  7 active torsions:
REMARK  status: ('A' for Active; 'I' for Inactive)
REMARK    1  A    between atoms: C_7  and  C_11
REMARK    2  A    between atoms: N_14  and  C_16
REMARK    3  A    between atoms: C_15  and  C_18
REMARK    4  A    between atoms: C_16  and  C_19
REMARK    5  A    between atoms: C_21  and  C_26
REMARK    6  A    between atoms: C_31  and  N_34
REMARK    7  A    between atoms: N_39  and  C_40
REMARK                            x       y       z     vdW  Elec       q    Type
REMARK                         _______ _______ _______ _____ _____    ______ ____
ROOT
ATOM      1 CL   UNL     1       0.935   0.061   0.018  0.00  0.00    -0.083 Cl
ATOM      2  C   UNL     1       2.664  -0.028  -0.006  0.00  0.00    +0.048 A 
ATOM      3  C   UNL     1       3.341  -1.253   0.016  0.00  0.00    -0.005 A 
ATOM      4  C   UNL     1       3.360   1.170  -0.035  0.00  0.00    +0.053 A 
ATOM      5  C   UNL     1       4.747  -1.226   0.033  0.00  0.00    +0.064 A 
ATOM      6  C   UNL     1       2.579  -2.555   0.102  0.00  0.00    +0.057 C 
ATOM      7  C   UNL     1       4.747   1.109  -0.039  0.00  0.00    +0.127 A 
ATOM      8  N   UNL     1       5.454  -0.056  -0.009  0.00  0.00    -0.245 NA
ATOM      9  C   UNL     1       5.547  -2.537   0.069  0.00  0.00    +0.163 C 
ATOM     10  C   UNL     1       3.434  -3.782  -0.196  0.00  0.00    +0.113 C 
ATOM     11  N   UNL     1       4.734  -3.695   0.443  0.00  0.00    -0.289 N 
ATOM     12  C   UNL     1       5.292  -4.780   1.133  0.00  0.00    +0.283 C 
ATOM     13  O   UNL     1       6.499  -5.014   1.083  0.00  0.00    -0.267 OA
ENDROOT
BRANCH  12  14
ATOM     14  C   UNL     1       4.399  -5.422   2.110  0.00  0.00    +0.194 A 
ATOM     15  O   UNL     1       3.404  -4.593   2.589  0.00  0.00    -0.450 OA
ATOM     16  C   UNL     1       4.632  -6.373   3.107  0.00  0.00    +0.008 A 
ATOM     17  C   UNL     1       3.579  -4.582   3.929  0.00  0.00    +0.136 A 
ATOM     18  C   UNL     1       4.438  -5.610   4.301  0.00  0.00    +0.024 A 
ATOM     19  C   UNL     1       5.065  -7.786   3.041  0.00  0.00    +0.048 C 
ATOM     20  C   UNL     1       3.045  -3.637   4.787  0.00  0.00    +0.047 A 
ATOM     21  C   UNL     1       4.866  -5.668   5.634  0.00  0.00    +0.012 A 
ATOM     22  C   UNL     1       3.522  -3.681   6.096  0.00  0.00    +0.004 A 
ATOM     23  C   UNL     1       4.434  -4.661   6.510  0.00  0.00    +0.001 A 
ENDBRANCH  12  14
BRANCH   7  24
ATOM     24  C   UNL     1       5.492   2.416  -0.055  0.00  0.00    +0.263 C 
ATOM     25  O   UNL     1       4.890   3.478  -0.023  0.00  0.00    -0.269 OA
ATOM     26  N   UNL     1       6.864   2.324  -0.085  0.00  0.00    -0.306 N 
ATOM     27  H   UNL     1       7.281   1.435  -0.158  0.00  0.00    +0.149 HD
BRANCH  26  28
ATOM     28  C   UNL     1       7.714   3.491  -0.013  0.00  0.00    +0.140 C 
BRANCH  28  29
ATOM     29  C   UNL     1       8.641   3.587  -1.196  0.00  0.00    -0.030 A 
ATOM     30  C   UNL     1       8.234   4.240  -2.361  0.00  0.00    +0.007 A 
ATOM     31  C   UNL     1       9.925   3.039  -1.156  0.00  0.00    +0.007 A 
ATOM     32  C   UNL     1       9.107   4.362  -3.448  0.00  0.00    +0.023 A 
ATOM     33  C   UNL     1      10.792   3.171  -2.251  0.00  0.00    +0.023 A 
ATOM     34  C   UNL     1      10.409   3.839  -3.422  0.00  0.00    +0.030 A 
BRANCH  34  35
ATOM     35  N   UNL     1      11.269   4.056  -4.483  0.00  0.00    -0.333 N 
ATOM     36  C   UNL     1      12.730   4.000  -4.333  0.00  0.00    +0.086 C 
ATOM     37  C   UNL     1      10.816   3.825  -5.867  0.00  0.00    +0.086 C 
ATOM     38  C   UNL     1      13.379   5.020  -5.302  0.00  0.00    -0.060 C 
ATOM     39  C   UNL     1      11.501   4.843  -6.811  0.00  0.00    -0.060 C 
ATOM     40  N   UNL     1      12.980   4.812  -6.714  0.00  0.00    +0.380 N 
ATOM     41  C   UNL     1      13.570   5.840  -7.569  0.00  0.00    -0.096 C 
ATOM     42  H   UNL     1      13.320   3.904  -7.032  0.00  0.00    -0.082 HD
ENDBRANCH  34  35
ENDBRANCH  28  29
ENDBRANCH  26  28
ENDBRANCH   7  24
TORSDOF 5
