REMARK  Name = CTX-1019813
REMARK  6 active torsions:
REMARK  status: ('A' for Active; 'I' for Inactive)
REMARK    1  A    between atoms: C_2  and  C_4
REMARK    2  A    between atoms: N_3  and  C_5
REMARK    3  A    between atoms: C_5  and  C_8
REMARK    4  A    between atoms: C_19  and  N_22
REMARK    5  A    between atoms: C_21  and  C_24
REMARK    6  A    between atoms: N_34  and  C_37
REMARK                            x       y       z     vdW  Elec       q    Type
REMARK                         _______ _______ _______ _____ _____    ______ ____
ROOT
ATOM      1  C   UNL     1       3.023   0.515  -1.330  0.00  0.00    +0.126 A 
ATOM      2  N   UNL     1       4.413   0.434  -1.439  0.00  0.00    -0.245 NA
ATOM      3  C   UNL     1       2.215   1.023  -2.359  0.00  0.00    +0.033 A 
ATOM      4  C   UNL     1       5.043   0.769  -2.658  0.00  0.00    +0.063 A 
ATOM      5  C   UNL     1       2.881   1.476  -3.527  0.00  0.00    +0.008 A 
ATOM      6  C   UNL     1       4.288   1.356  -3.677  0.00  0.00    -0.023 A 
ATOM      7  C   UNL     1       6.641   0.502  -2.939  0.00  0.00    +0.163 C 
ATOM      8  C   UNL     1       4.948   1.759  -5.001  0.00  0.00    +0.056 C 
ATOM      9  N   UNL     1       7.161   0.417  -4.527  0.00  0.00    -0.291 N 
ATOM     10  C   UNL     1       6.550   1.731  -5.073  0.00  0.00    +0.113 C 
ATOM     11  C   UNL     1       8.356  -0.738  -5.049  0.00  0.00    +0.251 C 
ATOM     12  O   UNL     1       8.550  -1.528  -4.082  0.00  0.00    -0.270 OA
ENDROOT
BRANCH  11  13
ATOM     13  C   UNL     1       9.347  -1.175  -6.558  0.00  0.00    +0.082 A 
ATOM     14  C   UNL     1      10.322  -1.093  -8.200  0.00  0.00    +0.032 A 
ATOM     15  C   UNL     1       8.263  -0.666  -7.259  0.00  0.00    +0.209 A 
ATOM     16  C   UNL     1       9.223  -1.327  -8.960  0.00  0.00    +0.136 A 
ATOM     17  C   UNL     1      11.727  -1.150  -9.380  0.00  0.00    +0.012 A 
ATOM     18  O   UNL     1       8.035  -1.321  -8.380  0.00  0.00    -0.462 OA
ATOM     19  C   UNL     1       9.209  -1.352 -10.310  0.00  0.00    +0.047 A 
ATOM     20  C   UNL     1      11.494  -1.502 -10.728  0.00  0.00    +0.001 A 
ATOM     21  C   UNL     1      10.188  -1.345 -11.190  0.00  0.00    +0.004 A 
ENDBRANCH  11  13
BRANCH   1  23
ATOM     22  O   UNL     1       1.045   0.051  -0.069  0.00  0.00    -0.269 OA
ATOM     23  C   UNL     1       2.223  -0.001  -0.114  0.00  0.00    +0.263 C 
ATOM     24  N   UNL     1       2.986  -0.556   0.974  0.00  0.00    -0.306 N 
ATOM     25  H   UNL     1       3.967  -0.608   0.920  0.00  0.00    +0.149 HD
BRANCH  24  26
ATOM     26  C   UNL     1       2.285  -1.039   2.155  0.00  0.00    +0.140 C 
BRANCH  26  27
ATOM     27  C   UNL     1       2.699  -0.319   3.429  0.00  0.00    -0.030 A 
ATOM     28  C   UNL     1       2.008   0.815   3.877  0.00  0.00    +0.007 A 
ATOM     29  C   UNL     1       3.806  -0.738   4.181  0.00  0.00    +0.007 A 
ATOM     30  C   UNL     1       2.380   1.475   5.039  0.00  0.00    +0.023 A 
ATOM     31  C   UNL     1       4.256   0.020   5.271  0.00  0.00    +0.023 A 
ATOM     32  C   UNL     1       3.525   1.113   5.755  0.00  0.00    +0.030 A 
BRANCH  32  33
ATOM     33  N   UNL     1       3.863   1.778   6.911  0.00  0.00    -0.333 N 
ATOM     34  C   UNL     1       4.585   1.100   7.985  0.00  0.00    +0.086 C 
ATOM     35  C   UNL     1       3.706   3.235   7.067  0.00  0.00    +0.086 C 
ATOM     36  C   UNL     1       3.969   1.470   9.350  0.00  0.00    -0.060 C 
ATOM     37  C   UNL     1       3.145   3.551   8.473  0.00  0.00    -0.060 C 
ATOM     38  N   UNL     1       3.960   2.937   9.551  0.00  0.00    +0.380 N 
ATOM     39  C   UNL     1       3.448   3.287  10.871  0.00  0.00    -0.096 C 
ATOM     40  H   UNL     1       4.913   3.296   9.506  0.00  0.00    -0.082 HD
ENDBRANCH  32  33
ENDBRANCH  26  27
ENDBRANCH  24  26
ENDBRANCH   1  23
TORSDOF 5
