REMARK  Name = CTX-1020838
REMARK  6 active torsions:
REMARK  status: ('A' for Active; 'I' for Inactive)
REMARK    1  A    between atoms: C_3  and  C_6
REMARK    2  A    between atoms: C_21  and  C_23
REMARK    3  A    between atoms: N_26  and  C_27
REMARK    4  A    between atoms: C_27  and  C_28
REMARK    5  A    between atoms: C_33  and  N_34
REMARK    6  A    between atoms: N_39  and  C_40
REMARK                            x       y       z     vdW  Elec       q    Type
REMARK                         _______ _______ _______ _____ _____    ______ ____
ROOT
ATOM      1  C   UNL     1       2.163  -3.201  -0.244  0.00  0.00    +0.284 C 
ATOM      2  O   UNL     1       3.026  -2.312  -0.333  0.00  0.00    -0.267 OA
ATOM      3  N   UNL     1       2.697  -4.527  -0.104  0.00  0.00    -0.289 N 
ATOM      4  C   UNL     1       2.017  -5.839   0.166  0.00  0.00    +0.163 C 
ATOM      5  C   UNL     1       4.147  -4.518  -0.332  0.00  0.00    +0.113 C 
ATOM      6  C   UNL     1       2.884  -7.145   0.052  0.00  0.00    +0.063 A 
ATOM      7  C   UNL     1       4.982  -5.724  -0.001  0.00  0.00    +0.056 C 
ATOM      8  N   UNL     1       2.298  -8.403   0.143  0.00  0.00    -0.245 NA
ATOM      9  C   UNL     1       4.274  -7.026  -0.073  0.00  0.00    -0.023 A 
ATOM     10  C   UNL     1       3.140  -9.508   0.078  0.00  0.00    +0.126 A 
ATOM     11  C   UNL     1       5.083  -8.165  -0.157  0.00  0.00    +0.008 A 
ATOM     12  C   UNL     1       4.514  -9.414  -0.087  0.00  0.00    +0.033 A 
ENDROOT
BRANCH   1  15
ATOM     13 CL   UNL     1       1.340   0.015  -0.616  0.00  0.00    -0.079 Cl
ATOM     14  C   UNL     1       0.383  -1.405  -0.529  0.00  0.00    +0.099 A 
ATOM     15  C   UNL     1       0.771  -2.738  -0.343  0.00  0.00    +0.209 A 
ATOM     16  C   UNL     1      -1.018  -1.348  -0.691  0.00  0.00    +0.042 A 
ATOM     17  O   UNL     1      -0.372  -3.516  -0.348  0.00  0.00    -0.446 OA
ATOM     18  C   UNL     1      -1.451  -2.668  -0.553  0.00  0.00    +0.172 A 
ATOM     19  C   UNL     1      -1.959  -0.323  -0.944  0.00  0.00    +0.013 A 
ATOM     20  C   UNL     1      -2.811  -2.991  -0.640  0.00  0.00    +0.166 A 
ATOM     21  C   UNL     1      -3.314  -0.633  -1.046  0.00  0.00    +0.004 A 
ATOM     22  F   UNL     1      -3.253  -4.243  -0.486  0.00  0.00    -0.202 F 
ATOM     23  C   UNL     1      -3.736  -1.952  -0.887  0.00  0.00    +0.042 A 
ENDBRANCH   1  15
BRANCH  10  24
ATOM     24  C   UNL     1       2.651 -10.933   0.230  0.00  0.00    +0.263 C 
ATOM     25  O   UNL     1       3.469 -11.865   0.247  0.00  0.00    -0.269 OA
ATOM     26  N   UNL     1       1.303 -11.182   0.342  0.00  0.00    -0.306 N 
ATOM     27  H   UNL     1       0.671 -10.427   0.350  0.00  0.00    +0.149 HD
BRANCH  26  28
ATOM     28  C   UNL     1       0.791 -12.543   0.450  0.00  0.00    +0.140 C 
BRANCH  28  29
ATOM     29  C   UNL     1      -0.122 -12.873  -0.700  0.00  0.00    -0.030 A 
ATOM     30  C   UNL     1       0.363 -13.497  -1.853  0.00  0.00    +0.007 A 
ATOM     31  C   UNL     1      -1.471 -12.516  -0.657  0.00  0.00    +0.007 A 
ATOM     32  C   UNL     1      -0.484 -13.730  -2.945  0.00  0.00    +0.023 A 
ATOM     33  C   UNL     1      -2.301 -12.738  -1.763  0.00  0.00    +0.023 A 
ATOM     34  C   UNL     1      -1.833 -13.345  -2.937  0.00  0.00    +0.030 A 
BRANCH  34  35
ATOM     35  N   UNL     1      -2.657 -13.627  -4.009  0.00  0.00    -0.333 N 
ATOM     36  C   UNL     1      -4.117 -13.703  -3.866  0.00  0.00    +0.086 C 
ATOM     37  C   UNL     1      -2.216 -13.393  -5.397  0.00  0.00    +0.086 C 
ATOM     38  C   UNL     1      -4.663 -14.802  -4.807  0.00  0.00    -0.060 C 
ATOM     39  C   UNL     1      -2.805 -14.491  -6.319  0.00  0.00    -0.060 C 
ATOM     40  N   UNL     1      -4.282 -14.592  -6.223  0.00  0.00    +0.380 N 
ATOM     41  C   UNL     1      -4.777 -15.691  -7.048  0.00  0.00    -0.096 C 
ATOM     42  H   UNL     1      -4.700 -13.727  -6.565  0.00  0.00    -0.082 HD
ENDBRANCH  34  35
ENDBRANCH  28  29
ENDBRANCH  26  28
ENDBRANCH  10  24
TORSDOF 5
