REMARK  Name = CTX-1019758
REMARK  7 active torsions:
REMARK  status: ('A' for Active; 'I' for Inactive)
REMARK    1  A    between atoms: C_2  and  C_4
REMARK    2  A    between atoms: N_9  and  C_12
REMARK    3  A    between atoms: C_12  and  C_14
REMARK    4  A    between atoms: C_15  and  C_19
REMARK    5  A    between atoms: C_23  and  C_27
REMARK    6  A    between atoms: C_24  and  N_28
REMARK    7  A    between atoms: N_37  and  C_38
REMARK                            x       y       z     vdW  Elec       q    Type
REMARK                         _______ _______ _______ _____ _____    ______ ____
ROOT
ATOM      1  S   UNL     1       1.780  -0.721  -0.037  0.00  0.00    -0.088 S 
ATOM      2  C   UNL     1       2.107   0.959   0.041  0.00  0.00    +0.074 A 
ATOM      3  C   UNL     1       0.098  -0.464  -0.035  0.00  0.00    -0.003 A 
ATOM      4  C   UNL     1       0.924   1.688   0.072  0.00  0.00    +0.026 A 
ATOM      5  C   UNL     1      -0.255   0.871   0.036  0.00  0.00    -0.019 A 
ATOM      6  C   UNL     1      -0.888  -1.585  -0.146  0.00  0.00    +0.062 C 
ATOM      7  C   UNL     1      -1.690   1.347   0.063  0.00  0.00    +0.144 C 
ATOM      8  C   UNL     1      -2.298  -1.078   0.196  0.00  0.00    +0.113 C 
ATOM      9  N   UNL     1      -2.574   0.254  -0.353  0.00  0.00    -0.290 N 
ATOM     10  C   UNL     1      -3.751   0.547  -1.053  0.00  0.00    +0.283 C 
ATOM     11  O   UNL     1      -4.296   1.646  -0.945  0.00  0.00    -0.267 OA
ENDROOT
BRANCH  10  12
ATOM     12  C   UNL     1      -4.111  -0.415  -2.112  0.00  0.00    +0.194 A 
ATOM     13  O   UNL     1      -3.039  -1.143  -2.598  0.00  0.00    -0.450 OA
ATOM     14  C   UNL     1      -4.966  -0.219  -3.208  0.00  0.00    +0.008 A 
ATOM     15  C   UNL     1      -2.851  -0.621  -3.841  0.00  0.00    +0.136 A 
ATOM     16  C   UNL     1      -4.017   0.004  -4.253  0.00  0.00    +0.024 A 
ATOM     17  C   UNL     1      -6.416   0.069  -3.249  0.00  0.00    +0.048 C 
ATOM     18  C   UNL     1      -1.642  -0.614  -4.516  0.00  0.00    +0.047 A 
ATOM     19  C   UNL     1      -3.990   0.725  -5.464  0.00  0.00    +0.012 A 
ATOM     20  C   UNL     1      -1.604   0.208  -5.641  0.00  0.00    +0.004 A 
ATOM     21  C   UNL     1      -2.751   0.869  -6.102  0.00  0.00    +0.001 A 
ENDBRANCH  10  12
BRANCH   2  22
ATOM     22  C   UNL     1       3.462   1.507   0.072  0.00  0.00    +0.251 C 
ATOM     23  O   UNL     1       3.665   2.725   0.121  0.00  0.00    -0.270 OA
ATOM     24  N   UNL     1       4.513   0.614   0.052  0.00  0.00    -0.307 N 
ATOM     25  H   UNL     1       4.314  -0.348  -0.008  0.00  0.00    +0.149 HD
BRANCH  24  26
ATOM     26  C   UNL     1       5.902   1.035   0.115  0.00  0.00    +0.139 C 
BRANCH  26  27
ATOM     27  C   UNL     1       6.685   0.596  -1.098  0.00  0.00    -0.030 A 
ATOM     28  C   UNL     1       6.298   1.018  -2.371  0.00  0.00    +0.007 A 
ATOM     29  C   UNL     1       7.845  -0.184  -0.984  0.00  0.00    +0.007 A 
ATOM     30  C   UNL     1       7.029   0.633  -3.496  0.00  0.00    +0.023 A 
ATOM     31  C   UNL     1       8.580  -0.559  -2.123  0.00  0.00    +0.023 A 
ATOM     32  C   UNL     1       8.173  -0.176  -3.404  0.00  0.00    +0.030 A 
BRANCH  32  33
ATOM     33  N   UNL     1       8.842  -0.516  -4.574  0.00  0.00    -0.333 N 
ATOM     34  C   UNL     1      10.264  -0.897  -4.568  0.00  0.00    +0.086 C 
ATOM     35  C   UNL     1       8.057  -1.317  -5.538  0.00  0.00    +0.086 C 
ATOM     36  C   UNL     1      10.836  -0.734  -6.004  0.00  0.00    -0.060 C 
ATOM     37  C   UNL     1       8.647  -1.131  -6.953  0.00  0.00    -0.060 C 
ATOM     38  N   UNL     1      10.079  -1.502  -7.025  0.00  0.00    +0.380 N 
ATOM     39  C   UNL     1      10.600  -1.237  -8.365  0.00  0.00    -0.096 C 
ATOM     40  H   UNL     1      10.185  -2.499  -6.835  0.00  0.00    -0.082 HD
ENDBRANCH  32  33
ENDBRANCH  26  27
ENDBRANCH  24  26
ENDBRANCH   2  22
TORSDOF 5
