REMARK  Name = CTX-1019613
REMARK  7 active torsions:
REMARK  status: ('A' for Active; 'I' for Inactive)
REMARK    1  A    between atoms: C_2  and  C_5
REMARK    2  A    between atoms: C_4  and  C_8
REMARK    3  A    between atoms: C_20  and  C_22
REMARK    4  A    between atoms: N_25  and  C_26
REMARK    5  A    between atoms: C_26  and  C_27
REMARK    6  A    between atoms: C_32  and  N_33
REMARK    7  A    between atoms: N_38  and  C_39
REMARK                            x       y       z     vdW  Elec       q    Type
REMARK                         _______ _______ _______ _____ _____    ______ ____
ROOT
ATOM      1  C   UNL     1       4.936  -0.532   0.066  0.00  0.00    +0.254 C 
ATOM      2  O   UNL     1       3.830   0.045   0.046  0.00  0.00    -0.269 OA
ATOM      3  N   UNL     1       6.046   0.409   0.090  0.00  0.00    -0.291 N 
ATOM      4  C   UNL     1       7.532   0.229   0.193  0.00  0.00    +0.163 C 
ATOM      5  C   UNL     1       5.531   1.770  -0.123  0.00  0.00    +0.113 C 
ATOM      6  C   UNL     1       8.456   1.502   0.188  0.00  0.00    +0.063 A 
ATOM      7  C   UNL     1       6.417   2.990  -0.052  0.00  0.00    +0.056 C 
ATOM      8  N   UNL     1       9.836   1.381   0.319  0.00  0.00    -0.245 NA
ATOM      9  C   UNL     1       7.874   2.763   0.050  0.00  0.00    -0.023 A 
ATOM     10  C   UNL     1      10.582   2.553   0.324  0.00  0.00    +0.126 A 
ATOM     11  C   UNL     1       8.669   3.916   0.043  0.00  0.00    +0.008 A 
ATOM     12  C   UNL     1      10.030   3.818   0.186  0.00  0.00    +0.033 A 
ENDROOT
BRANCH   1  14
ATOM     13  S   UNL     1       3.181  -2.578  -0.097  0.00  0.00    -0.083 S 
ATOM     14  C   UNL     1       4.869  -2.032   0.034  0.00  0.00    +0.078 A 
ATOM     15  C   UNL     1       3.521  -4.236  -0.132  0.00  0.00    +0.020 A 
ATOM     16  C   UNL     1       5.668  -3.182   0.063  0.00  0.00    -0.024 A 
ATOM     17  C   UNL     1       4.887  -4.454  -0.040  0.00  0.00    -0.007 A 
ATOM     18  C   UNL     1       2.584  -5.292  -0.238  0.00  0.00    +0.015 A 
ATOM     19  C   UNL     1       7.146  -3.272   0.185  0.00  0.00    +0.046 C 
ATOM     20  C   UNL     1       5.308  -5.814  -0.056  0.00  0.00    +0.009 A 
ATOM     21  C   UNL     1       3.031  -6.613  -0.253  0.00  0.00    +0.001 A 
ATOM     22  C   UNL     1       4.387  -6.875  -0.162  0.00  0.00    +0.001 A 
ENDBRANCH   1  14
BRANCH  10  23
ATOM     23  C   UNL     1      12.095   2.589   0.490  0.00  0.00    +0.263 C 
ATOM     24  O   UNL     1      12.667   3.668   0.616  0.00  0.00    -0.269 OA
ATOM     25  N   UNL     1      12.808   1.414   0.463  0.00  0.00    -0.306 N 
ATOM     26  H   UNL     1      12.336   0.550   0.436  0.00  0.00    +0.149 HD
BRANCH  25  27
ATOM     27  C   UNL     1      14.266   1.452   0.475  0.00  0.00    +0.140 C 
BRANCH  27  28
ATOM     28  C   UNL     1      14.842   0.247   1.159  0.00  0.00    -0.030 A 
ATOM     29  C   UNL     1      15.636  -0.676   0.480  0.00  0.00    +0.007 A 
ATOM     30  C   UNL     1      14.567   0.021   2.507  0.00  0.00    +0.007 A 
ATOM     31  C   UNL     1      16.042  -1.859   1.113  0.00  0.00    +0.023 A 
ATOM     32  C   UNL     1      14.994  -1.155   3.132  0.00  0.00    +0.023 A 
ATOM     33  C   UNL     1      15.699  -2.153   2.443  0.00  0.00    +0.030 A 
BRANCH  33  34
ATOM     34  N   UNL     1      15.958  -3.394   3.002  0.00  0.00    -0.333 N 
ATOM     35  C   UNL     1      17.190  -4.144   2.691  0.00  0.00    +0.086 C 
ATOM     36  C   UNL     1      15.341  -3.805   4.277  0.00  0.00    +0.086 C 
ATOM     37  C   UNL     1      16.907  -5.667   2.733  0.00  0.00    -0.060 C 
ATOM     38  C   UNL     1      15.096  -5.331   4.279  0.00  0.00    -0.060 C 
ATOM     39  N   UNL     1      16.331  -6.103   4.026  0.00  0.00    +0.380 N 
ATOM     40  C   UNL     1      16.047  -7.534   4.015  0.00  0.00    -0.096 C 
ATOM     41  H   UNL     1      17.006  -5.930   4.771  0.00  0.00    -0.082 HD
ENDBRANCH  33  34
ENDBRANCH  27  28
ENDBRANCH  25  27
ENDBRANCH  10  23
TORSDOF 5
