REMARK  Name = CTX-1019480
REMARK  5 active torsions:
REMARK  status: ('A' for Active; 'I' for Inactive)
REMARK    1  A    between atoms: C_2  and  C_4
REMARK    2  A    between atoms: N_3  and  C_5
REMARK    3  A    between atoms: C_5  and  C_8
REMARK    4  A    between atoms: C_21  and  C_23
REMARK    5  A    between atoms: C_25  and  C_28
REMARK                            x       y       z     vdW  Elec       q    Type
REMARK                         _______ _______ _______ _____ _____    ______ ____
ROOT
ATOM      1  C   UNL     1       3.042   0.949  -1.024  0.00  0.00    +0.126 A 
ATOM      2  N   UNL     1       4.032   0.450  -1.830  0.00  0.00    -0.245 NA
ATOM      3  C   UNL     1       2.571   2.252  -1.089  0.00  0.00    +0.033 A 
ATOM      4  C   UNL     1       4.563   1.311  -2.759  0.00  0.00    +0.063 A 
ATOM      5  C   UNL     1       3.125   3.109  -2.022  0.00  0.00    +0.008 A 
ATOM      6  C   UNL     1       4.136   2.648  -2.868  0.00  0.00    -0.023 A 
ATOM      7  C   UNL     1       5.679   0.799  -3.686  0.00  0.00    +0.163 C 
ATOM      8  C   UNL     1       4.666   3.583  -3.924  0.00  0.00    +0.056 C 
ATOM      9  N   UNL     1       5.923   1.681  -4.836  0.00  0.00    -0.289 N 
ATOM     10  C   UNL     1       5.968   3.104  -4.548  0.00  0.00    +0.113 C 
ATOM     11  C   UNL     1       6.362   1.173  -6.063  0.00  0.00    +0.283 C 
ATOM     12  O   UNL     1       7.008   0.128  -6.129  0.00  0.00    -0.267 OA
ENDROOT
BRANCH  11  13
ATOM     13  C   UNL     1       5.769   1.813  -7.246  0.00  0.00    +0.194 A 
ATOM     14  O   UNL     1       4.559   2.434  -7.020  0.00  0.00    -0.450 OA
ATOM     15  C   UNL     1       5.817   1.503  -8.607  0.00  0.00    +0.008 A 
ATOM     16  C   UNL     1       3.724   1.910  -7.949  0.00  0.00    +0.136 A 
ATOM     17  C   UNL     1       4.449   1.211  -8.898  0.00  0.00    +0.024 A 
ATOM     18  C   UNL     1       6.963   1.350  -9.535  0.00  0.00    +0.048 C 
ATOM     19  C   UNL     1       2.341   1.990  -7.888  0.00  0.00    +0.047 A 
ATOM     20  C   UNL     1       3.745   0.444  -9.838  0.00  0.00    +0.012 A 
ATOM     21  C   UNL     1       1.659   1.181  -8.795  0.00  0.00    +0.004 A 
ATOM     22  C   UNL     1       2.346   0.401  -9.733  0.00  0.00    +0.001 A 
ENDBRANCH  11  13
BRANCH   1  24
ATOM     23  O   UNL     1       1.457   0.472   0.685  0.00  0.00    -0.269 OA
ATOM     24  C   UNL     1       2.378   0.049  -0.016  0.00  0.00    +0.263 C 
ATOM     25  N   UNL     1       2.838  -1.245   0.068  0.00  0.00    -0.306 N 
ATOM     26  H   UNL     1       3.604  -1.521  -0.486  0.00  0.00    +0.149 HD
BRANCH  25  27
ATOM     27  C   UNL     1       2.216  -2.212   0.956  0.00  0.00    +0.140 C 
BRANCH  27  28
ATOM     28  C   UNL     1       3.171  -2.689   2.023  0.00  0.00    -0.030 A 
ATOM     29  C   UNL     1       3.298  -1.997   3.238  0.00  0.00    +0.005 A 
ATOM     30  C   UNL     1       3.940  -3.838   1.815  0.00  0.00    +0.005 A 
ATOM     31  C   UNL     1       4.174  -2.445   4.232  0.00  0.00    +0.000 A 
ATOM     32  C   UNL     1       4.824  -4.284   2.803  0.00  0.00    +0.000 A 
ATOM     33  C   UNL     1       4.936  -3.591   4.006  0.00  0.00    +0.000 A 
ENDBRANCH  27  28
ENDBRANCH  25  27
ENDBRANCH   1  24
TORSDOF 4
