REMARK  Name = CTX-1019473
REMARK  8 active torsions:
REMARK  status: ('A' for Active; 'I' for Inactive)
REMARK    1  A    between atoms: C_2  and  C_4
REMARK    2  A    between atoms: N_3  and  C_5
REMARK    3  A    between atoms: C_5  and  C_8
REMARK    4  A    between atoms: C_19  and  N_22
REMARK    5  A    between atoms: C_21  and  C_24
REMARK    6  A    between atoms: N_22  and  C_25
REMARK    7  A    between atoms: N_22  and  C_26
REMARK    8  A    between atoms: C_28  and  C_31
REMARK                            x       y       z     vdW  Elec       q    Type
REMARK                         _______ _______ _______ _____ _____    ______ ____
ROOT
ATOM      1  C   UNL     1       3.110  -0.747   0.980  0.00  0.00    +0.126 A 
ATOM      2  N   UNL     1       4.228  -0.090   1.412  0.00  0.00    -0.245 NA
ATOM      3  C   UNL     1       2.667  -1.950   1.513  0.00  0.00    +0.033 A 
ATOM      4  C   UNL     1       4.934  -0.672   2.434  0.00  0.00    +0.063 A 
ATOM      5  C   UNL     1       3.415  -2.545   2.520  0.00  0.00    +0.008 A 
ATOM      6  C   UNL     1       4.573  -1.915   2.984  0.00  0.00    -0.023 A 
ATOM      7  C   UNL     1       6.159   0.076   2.967  0.00  0.00    +0.163 C 
ATOM      8  C   UNL     1       5.349  -2.547   4.115  0.00  0.00    +0.056 C 
ATOM      9  N   UNL     1       6.645  -0.448   4.249  0.00  0.00    -0.289 N 
ATOM     10  C   UNL     1       6.718  -1.902   4.332  0.00  0.00    +0.113 C 
ATOM     11  C   UNL     1       7.201   0.426   5.201  0.00  0.00    +0.283 C 
ATOM     12  O   UNL     1       7.536   1.568   4.879  0.00  0.00    -0.267 OA
ENDROOT
BRANCH  11  13
ATOM     13  C   UNL     1       7.158  -0.009   6.622  0.00  0.00    +0.194 A 
ATOM     14  O   UNL     1       6.063  -0.835   6.874  0.00  0.00    -0.450 OA
ATOM     15  C   UNL     1       7.254   0.766   7.786  0.00  0.00    +0.008 A 
ATOM     16  C   UNL     1       5.201  -0.013   7.521  0.00  0.00    +0.136 A 
ATOM     17  C   UNL     1       5.884   1.060   8.057  0.00  0.00    +0.024 A 
ATOM     18  C   UNL     1       8.377   1.081   8.697  0.00  0.00    +0.048 C 
ATOM     19  C   UNL     1       3.832  -0.223   7.629  0.00  0.00    +0.047 A 
ATOM     20  C   UNL     1       5.178   2.033   8.770  0.00  0.00    +0.012 A 
ATOM     21  C   UNL     1       3.131   0.785   8.279  0.00  0.00    +0.004 A 
ATOM     22  C   UNL     1       3.779   1.902   8.832  0.00  0.00    +0.001 A 
ENDBRANCH  11  13
BRANCH   1  24
ATOM     23  O   UNL     1       1.265  -0.682  -0.511  0.00  0.00    -0.269 OA
ATOM     24  C   UNL     1       2.303  -0.145  -0.136  0.00  0.00    +0.263 C 
ATOM     25  N   UNL     1       2.792   1.014  -0.699  0.00  0.00    -0.306 N 
ATOM     26  H   UNL     1       3.627   1.401  -0.348  0.00  0.00    +0.149 HD
BRANCH  25  27
ATOM     27  C   UNL     1       2.116   1.676  -1.790  0.00  0.00    +0.140 C 
BRANCH  27  28
ATOM     28  C   UNL     1       2.969   1.745  -3.026  0.00  0.00    -0.030 A 
ATOM     29  C   UNL     1       2.958   0.712  -3.964  0.00  0.00    +0.007 A 
ATOM     30  C   UNL     1       3.812   2.831  -3.263  0.00  0.00    +0.007 A 
ATOM     31  C   UNL     1       3.771   0.768  -5.108  0.00  0.00    +0.023 A 
ATOM     32  C   UNL     1       4.624   2.872  -4.410  0.00  0.00    +0.023 A 
ATOM     33  C   UNL     1       4.637   1.843  -5.370  0.00  0.00    +0.029 A 
BRANCH  33  34
ATOM     34  N   UNL     1       5.489   1.873  -6.465  0.00  0.00    -0.336 N 
ATOM     35  C   UNL     1       5.889   3.130  -7.097  0.00  0.00    +0.129 C 
ATOM     36  C   UNL     1       5.770   0.689  -7.273  0.00  0.00    +0.129 C 
ENDBRANCH  33  34
ENDBRANCH  27  28
ENDBRANCH  25  27
ENDBRANCH   1  24
TORSDOF 5
