REMARK  Name = CTX-1017233
REMARK  7 active torsions:
REMARK  status: ('A' for Active; 'I' for Inactive)
REMARK    1  A    between atoms: C_2  and  C_4
REMARK    2  A    between atoms: N_3  and  C_5
REMARK    3  A    between atoms: C_5  and  C_8
REMARK    4  A    between atoms: C_19  and  N_22
REMARK    5  A    between atoms: C_21  and  C_24
REMARK    6  A    between atoms: C_28  and  C_33
REMARK    7  A    between atoms: N_34  and  C_37
REMARK                            x       y       z     vdW  Elec       q    Type
REMARK                         _______ _______ _______ _____ _____    ______ ____
ROOT
ATOM      1  C   UNL     1       3.123  -0.816  -1.063  0.00  0.00    +0.126 A 
ATOM      2  N   UNL     1       4.045  -1.680  -0.546  0.00  0.00    -0.245 NA
ATOM      3  C   UNL     1       2.758  -0.775  -2.408  0.00  0.00    +0.033 A 
ATOM      4  C   UNL     1       4.656  -2.531  -1.423  0.00  0.00    +0.063 A 
ATOM      5  C   UNL     1       3.377  -1.659  -3.275  0.00  0.00    +0.008 A 
ATOM      6  C   UNL     1       4.347  -2.542  -2.793  0.00  0.00    -0.023 A 
ATOM      7  C   UNL     1       5.735  -3.473  -0.878  0.00  0.00    +0.163 C 
ATOM      8  C   UNL     1       4.960  -3.538  -3.743  0.00  0.00    +0.056 C 
ATOM      9  N   UNL     1       6.033  -4.589  -1.782  0.00  0.00    -0.289 N 
ATOM     10  C   UNL     1       6.200  -4.231  -3.183  0.00  0.00    +0.113 C 
ATOM     11  C   UNL     1       6.447  -5.829  -1.271  0.00  0.00    +0.283 C 
ATOM     12  O   UNL     1       6.909  -5.920  -0.132  0.00  0.00    -0.267 OA
ENDROOT
BRANCH  11  13
ATOM     13  C   UNL     1       6.056  -7.007  -2.061  0.00  0.00    +0.194 A 
ATOM     14  O   UNL     1       4.910  -6.810  -2.812  0.00  0.00    -0.450 OA
ATOM     15  C   UNL     1       6.085  -8.377  -1.767  0.00  0.00    +0.008 A 
ATOM     16  C   UNL     1       4.042  -7.743  -2.355  0.00  0.00    +0.136 A 
ATOM     17  C   UNL     1       4.708  -8.683  -1.588  0.00  0.00    +0.024 A 
ATOM     18  C   UNL     1       7.200  -9.348  -1.661  0.00  0.00    +0.048 C 
ATOM     19  C   UNL     1       2.687  -7.720  -2.570  0.00  0.00    +0.047 A 
ATOM     20  C   UNL     1       3.960  -9.669  -0.925  0.00  0.00    +0.012 A 
ATOM     21  C   UNL     1       1.941  -8.675  -1.870  0.00  0.00    +0.004 A 
ATOM     22  C   UNL     1       2.563  -9.617  -1.043  0.00  0.00    +0.001 A 
ENDBRANCH  11  13
BRANCH   1  24
ATOM     23  O   UNL     1       1.867   1.148  -0.590  0.00  0.00    -0.269 OA
ATOM     24  C   UNL     1       2.417   0.138  -0.147  0.00  0.00    +0.263 C 
ATOM     25  N   UNL     1       2.381  -0.209   1.190  0.00  0.00    -0.306 N 
ATOM     26  H   UNL     1       2.851  -1.022   1.484  0.00  0.00    +0.149 HD
BRANCH  25  27
ATOM     27  C   UNL     1       1.675   0.582   2.167  0.00  0.00    +0.140 C 
BRANCH  27  28
ATOM     28  C   UNL     1       2.606   1.028   3.259  0.00  0.00    -0.030 A 
ATOM     29  C   UNL     1       3.336   2.210   3.117  0.00  0.00    +0.007 A 
ATOM     30  C   UNL     1       2.790   0.260   4.411  0.00  0.00    +0.007 A 
ATOM     31  C   UNL     1       4.230   2.610   4.113  0.00  0.00    +0.023 A 
ATOM     32  C   UNL     1       3.686   0.674   5.405  0.00  0.00    +0.023 A 
ATOM     33  C   UNL     1       4.429   1.854   5.277  0.00  0.00    +0.030 A 
BRANCH  33  34
ATOM     34  N   UNL     1       5.278   2.321   6.262  0.00  0.00    -0.333 N 
ATOM     35  C   UNL     1       5.124   1.928   7.667  0.00  0.00    +0.086 C 
ATOM     36  C   UNL     1       6.654   2.716   5.912  0.00  0.00    +0.086 C 
ATOM     37  C   UNL     1       5.583   3.104   8.562  0.00  0.00    -0.060 C 
ATOM     38  C   UNL     1       7.109   3.864   6.845  0.00  0.00    -0.060 C 
ATOM     39  N   UNL     1       6.976   3.528   8.284  0.00  0.00    +0.380 N 
ATOM     40  C   UNL     1       7.330   4.679   9.112  0.00  0.00    -0.096 C 
ATOM     41  H   UNL     1       7.615   2.766   8.510  0.00  0.00    -0.082 HD
ENDBRANCH  33  34
ENDBRANCH  27  28
ENDBRANCH  25  27
ENDBRANCH   1  24
TORSDOF 5
