REMARK  Name = CTX-1020818
REMARK  5 active torsions:
REMARK  status: ('A' for Active; 'I' for Inactive)
REMARK    1  A    between atoms: C_2  and  C_4
REMARK    2  A    between atoms: N_9  and  C_12
REMARK    3  A    between atoms: C_12  and  C_14
REMARK    4  A    between atoms: C_15  and  C_20
REMARK    5  A    between atoms: C_23  and  C_26
REMARK                            x       y       z     vdW  Elec       q    Type
REMARK                         _______ _______ _______ _____ _____    ______ ____
ROOT
ATOM      1  S   UNL     1       1.951  -0.800  -0.054  0.00  0.00    -0.088 S 
ATOM      2  C   UNL     1       2.339   0.875  -0.021  0.00  0.00    +0.074 A 
ATOM      3  C   UNL     1       0.270  -0.500  -0.065  0.00  0.00    -0.003 A 
ATOM      4  C   UNL     1       1.165   1.628  -0.020  0.00  0.00    +0.026 A 
ATOM      5  C   UNL     1      -0.045   0.845  -0.072  0.00  0.00    -0.019 A 
ATOM      6  C   UNL     1      -0.761  -1.591  -0.096  0.00  0.00    +0.062 C 
ATOM      7  C   UNL     1      -1.482   1.349  -0.090  0.00  0.00    +0.144 C 
ATOM      8  C   UNL     1      -2.123  -1.016   0.325  0.00  0.00    +0.113 C 
ATOM      9  N   UNL     1      -2.412   0.241  -0.386  0.00  0.00    -0.290 N 
ATOM     10  C   UNL     1      -3.395   0.387  -1.372  0.00  0.00    +0.283 C 
ATOM     11  O   UNL     1      -3.470   1.447  -2.035  0.00  0.00    -0.267 OA
ENDROOT
BRANCH  10  12
ATOM     12  C   UNL     1      -4.309  -0.722  -1.633  0.00  0.00    +0.194 A 
ATOM     13  O   UNL     1      -4.699  -1.517  -0.581  0.00  0.00    -0.450 OA
ATOM     14  C   UNL     1      -4.944  -1.177  -2.784  0.00  0.00    +0.008 A 
ATOM     15  C   UNL     1      -5.524  -2.483  -1.042  0.00  0.00    +0.136 A 
ATOM     16  C   UNL     1      -5.752  -2.293  -2.392  0.00  0.00    +0.024 A 
ATOM     17  C   UNL     1      -4.811  -0.656  -4.167  0.00  0.00    +0.048 C 
ATOM     18  C   UNL     1      -6.092  -3.498  -0.278  0.00  0.00    +0.047 A 
ATOM     19  C   UNL     1      -6.648  -3.165  -3.040  0.00  0.00    +0.012 A 
ATOM     20  C   UNL     1      -6.981  -4.350  -0.942  0.00  0.00    +0.004 A 
ATOM     21  C   UNL     1      -7.264  -4.185  -2.300  0.00  0.00    +0.001 A 
ENDBRANCH  10  12
BRANCH   2  22
ATOM     22  C   UNL     1       3.723   1.389   0.015  0.00  0.00    +0.251 C 
ATOM     23  O   UNL     1       3.961   2.604   0.037  0.00  0.00    -0.270 OA
ATOM     24  N   UNL     1       4.776   0.478   0.025  0.00  0.00    -0.310 N 
ATOM     25  H   UNL     1       4.558  -0.482   0.024  0.00  0.00    +0.149 HD
BRANCH  24  26
ATOM     26  C   UNL     1       6.206   0.870   0.036  0.00  0.00    +0.111 C 
BRANCH  26  27
ATOM     27  C   UNL     1       6.691   1.005  -1.385  0.00  0.00    -0.013 C 
ATOM     28  C   UNL     1       6.107   2.060  -2.448  0.00  0.00    +0.012 C 
ATOM     29  C   UNL     1       6.089  -0.070  -2.361  0.00  0.00    +0.012 C 
ATOM     30  C   UNL     1       8.051   0.706  -2.340  0.00  0.00    +0.012 C 
ATOM     31  C   UNL     1       6.807   0.927  -3.321  0.00  0.00    -0.009 C 
ENDBRANCH  26  27
ENDBRANCH  24  26
ENDBRANCH   2  22
TORSDOF 4
