REMARK  Name = CTX-1019496
REMARK  5 active torsions:
REMARK  status: ('A' for Active; 'I' for Inactive)
REMARK    1  A    between atoms: C_2  and  C_5
REMARK    2  A    between atoms: C_5  and  N_7
REMARK    3  A    between atoms: C_8  and  C_10
REMARK    4  A    between atoms: C_20  and  C_22
REMARK    5  A    between atoms: C_24  and  C_27
REMARK                            x       y       z     vdW  Elec       q    Type
REMARK                         _______ _______ _______ _____ _____    ______ ____
ROOT
ATOM      1  C   UNL     1       2.022   5.921   0.047  0.00  0.00    +0.126 A 
ATOM      2  N   UNL     1       2.115   6.990   0.909  0.00  0.00    -0.245 NA
ATOM      3  C   UNL     1       3.027   5.548  -0.834  0.00  0.00    +0.033 A 
ATOM      4  C   UNL     1       3.291   7.686   0.898  0.00  0.00    +0.063 A 
ATOM      5  C   UNL     1       4.206   6.281  -0.842  0.00  0.00    +0.008 A 
ATOM      6  C   UNL     1       4.349   7.364   0.028  0.00  0.00    -0.023 A 
ATOM      7  C   UNL     1       3.413   8.864   1.865  0.00  0.00    +0.163 C 
ATOM      8  C   UNL     1       5.662   8.103   0.079  0.00  0.00    +0.056 C 
ATOM      9  N   UNL     1       4.788   9.329   2.030  0.00  0.00    -0.289 N 
ATOM     10  C   UNL     1       5.571   9.439   0.809  0.00  0.00    +0.113 C 
ATOM     11  C   UNL     1       5.205   9.901   3.237  0.00  0.00    +0.283 C 
ATOM     12  O   UNL     1       4.397  10.412   4.011  0.00  0.00    -0.267 OA
ENDROOT
BRANCH  11  13
ATOM     13  C   UNL     1       6.589   9.601   3.626  0.00  0.00    +0.194 A 
ATOM     14  O   UNL     1       7.095   8.439   3.083  0.00  0.00    -0.450 OA
ATOM     15  C   UNL     1       7.293   9.826   4.811  0.00  0.00    +0.008 A 
ATOM     16  C   UNL     1       7.496   7.706   4.147  0.00  0.00    +0.136 A 
ATOM     17  C   UNL     1       7.519   8.500   5.283  0.00  0.00    +0.024 A 
ATOM     18  C   UNL     1       7.652  11.077   5.519  0.00  0.00    +0.048 C 
ATOM     19  C   UNL     1       7.763   6.350   4.112  0.00  0.00    +0.047 A 
ATOM     20  C   UNL     1       7.752   7.878   6.524  0.00  0.00    +0.012 A 
ATOM     21  C   UNL     1       7.949   5.745   5.358  0.00  0.00    +0.004 A 
ATOM     22  C   UNL     1       7.919   6.489   6.543  0.00  0.00    +0.001 A 
ENDBRANCH  11  13
BRANCH   1  24
ATOM     23  N   UNL     1      -0.212   5.565   0.959  0.00  0.00    -0.305 N 
ATOM     24  C   UNL     1       0.762   5.116   0.086  0.00  0.00    +0.263 C 
ATOM     25  O   UNL     1       0.622   4.111  -0.614  0.00  0.00    -0.269 OA
ATOM     26  H   UNL     1      -0.043   6.366   1.505  0.00  0.00    +0.149 HD
BRANCH  23  27
ATOM     27  C   UNL     1      -1.469   4.878   1.079  0.00  0.00    +0.148 C 
BRANCH  27  29
ATOM     28  S   UNL     1      -3.400   6.812   1.658  0.00  0.00    -0.079 S 
ATOM     29  C   UNL     1      -2.321   5.548   2.094  0.00  0.00    +0.026 A 
ATOM     30  C   UNL     1      -3.925   6.904   3.287  0.00  0.00    +0.156 A 
ATOM     31  C   UNL     1      -2.445   5.285   3.442  0.00  0.00    +0.123 A 
ATOM     32  N   UNL     1      -3.363   6.063   4.126  0.00  0.00    -0.255 NA
ENDBRANCH  27  29
ENDBRANCH  23  27
ENDBRANCH   1  24
TORSDOF 4
