MODEL 1
REMARK VINA RESULT:    -9.838      0.000      0.000
REMARK INTER + INTRA:         -12.878
REMARK INTER:                 -12.138
REMARK INTRA:                  -0.740
REMARK UNBOUND:                -0.740
REMARK  Name = CTX-1020818
REMARK  5 active torsions:
REMARK  status: ('A' for Active; 'I' for Inactive)
REMARK    1  A    between atoms: C_2  and  C_4
REMARK    2  A    between atoms: N_9  and  C_12
REMARK    3  A    between atoms: C_12  and  C_14
REMARK    4  A    between atoms: C_15  and  C_20
REMARK    5  A    between atoms: C_23  and  C_26
REMARK                            x       y       z     vdW  Elec       q    Type
REMARK                         _______ _______ _______ _____ _____    ______ ____
ROOT
ATOM      1  S   UNL     1      26.756   2.831 -18.151  0.00  0.00    -0.088 S 
ATOM      2  C   UNL     1      25.407   2.249 -17.258  0.00  0.00    +0.074 A 
ATOM      3  C   UNL     1      26.329   1.941 -19.545  0.00  0.00    -0.003 A 
ATOM      4  C   UNL     1      24.656   1.384 -18.053  0.00  0.00    +0.026 A 
ATOM      5  C   UNL     1      25.164   1.214 -19.393  0.00  0.00    -0.019 A 
ATOM      6  C   UNL     1      27.124   1.971 -20.818  0.00  0.00    +0.062 C 
ATOM      7  C   UNL     1      24.586   0.352 -20.507  0.00  0.00    +0.144 C 
ATOM      8  C   UNL     1      26.728   0.772 -21.694  0.00  0.00    +0.113 C 
ATOM      9  N   UNL     1      25.264   0.641 -21.786  0.00  0.00    -0.290 N 
ATOM     10  C   UNL     1      24.516   0.893 -22.942  0.00  0.00    +0.283 C 
ATOM     11  O   UNL     1      23.265   0.909 -22.892  0.00  0.00    -0.267 OA
ENDROOT
BRANCH  10  12
ATOM     12  C   UNL     1      25.216   1.163 -24.196  0.00  0.00    +0.194 A 
ATOM     13  O   UNL     1      25.299   0.161 -25.134  0.00  0.00    -0.450 OA
ATOM     14  C   UNL     1      25.843   2.294 -24.707  0.00  0.00    +0.008 A 
ATOM     15  C   UNL     1      25.995   0.614 -26.200  0.00  0.00    +0.136 A 
ATOM     16  C   UNL     1      26.315   1.946 -26.014  0.00  0.00    +0.024 A 
ATOM     17  C   UNL     1      26.033   3.610 -24.048  0.00  0.00    +0.048 C 
ATOM     18  C   UNL     1      26.316  -0.126 -27.334  0.00  0.00    +0.047 A 
ATOM     19  C   UNL     1      26.985   2.616 -27.055  0.00  0.00    +0.012 A 
ATOM     20  C   UNL     1      26.978   0.561 -28.357  0.00  0.00    +0.004 A 
ATOM     21  C   UNL     1      27.303   1.914 -28.227  0.00  0.00    +0.001 A 
ENDBRANCH  10  12
BRANCH   2  22
ATOM     22  C   UNL     1      25.134   2.628 -15.857  0.00  0.00    +0.251 C 
ATOM     23  O   UNL     1      25.938   3.305 -15.202  0.00  0.00    -0.270 OA
ATOM     24  N   UNL     1      23.943   2.211 -15.270  0.00  0.00    -0.310 N 
ATOM     25  H   UNL     1      23.314   1.688 -15.818  0.00  0.00    +0.149 HD
BRANCH  24  26
ATOM     26  C   UNL     1      23.567   2.506 -13.866  0.00  0.00    +0.111 C 
BRANCH  26  27
ATOM     27  C   UNL     1      22.146   3.008 -13.832  0.00  0.00    -0.013 C 
ATOM     28  C   UNL     1      20.854   2.100 -14.131  0.00  0.00    +0.012 C 
ATOM     29  C   UNL     1      21.715   3.770 -15.137  0.00  0.00    +0.012 C 
ATOM     30  C   UNL     1      21.202   4.227 -13.142  0.00  0.00    +0.012 C 
ATOM     31  C   UNL     1      20.374   3.601 -14.359  0.00  0.00    -0.009 C 
ENDBRANCH  26  27
ENDBRANCH  24  26
ENDBRANCH   2  22
TORSDOF 4
ENDMDL
MODEL 2
REMARK VINA RESULT:    -9.626      9.561     14.703
REMARK INTER + INTRA:         -12.616
REMARK INTER:                 -12.542
REMARK INTRA:                  -0.074
REMARK UNBOUND:                -0.740
REMARK  Name = CTX-1020818
REMARK  5 active torsions:
REMARK  status: ('A' for Active; 'I' for Inactive)
REMARK    1  A    between atoms: C_2  and  C_4
REMARK    2  A    between atoms: N_9  and  C_12
REMARK    3  A    between atoms: C_12  and  C_14
REMARK    4  A    between atoms: C_15  and  C_20
REMARK    5  A    between atoms: C_23  and  C_26
REMARK                            x       y       z     vdW  Elec       q    Type
REMARK                         _______ _______ _______ _____ _____    ______ ____
ROOT
ATOM      1  S   UNL     1      35.342   8.042 -24.968  0.00  0.00    -0.088 S 
ATOM      2  C   UNL     1      34.729   8.133 -26.572  0.00  0.00    +0.074 A 
ATOM      3  C   UNL     1      33.788   7.835 -24.292  0.00  0.00    -0.003 A 
ATOM      4  C   UNL     1      33.340   8.001 -26.551  0.00  0.00    +0.026 A 
ATOM      5  C   UNL     1      32.781   7.801 -25.237  0.00  0.00    -0.019 A 
ATOM      6  C   UNL     1      33.546   7.674 -22.819  0.00  0.00    +0.062 C 
ATOM      7  C   UNL     1      31.316   7.617 -24.865  0.00  0.00    +0.144 C 
ATOM      8  C   UNL     1      32.062   7.936 -22.516  0.00  0.00    +0.113 C 
ATOM      9  N   UNL     1      31.191   7.205 -23.453  0.00  0.00    -0.290 N 
ATOM     10  C   UNL     1      30.390   6.112 -23.103  0.00  0.00    +0.283 C 
ATOM     11  O   UNL     1      29.801   5.452 -23.990  0.00  0.00    -0.267 OA
ENDROOT
BRANCH  10  12
ATOM     12  C   UNL     1      30.276   5.736 -21.696  0.00  0.00    +0.194 A 
ATOM     13  O   UNL     1      30.227   6.732 -20.749  0.00  0.00    -0.450 OA
ATOM     14  C   UNL     1      30.172   4.510 -21.047  0.00  0.00    +0.008 A 
ATOM     15  C   UNL     1      30.139   6.170 -19.524  0.00  0.00    +0.136 A 
ATOM     16  C   UNL     1      30.051   4.797 -19.649  0.00  0.00    +0.024 A 
ATOM     17  C   UNL     1      30.207   3.154 -21.646  0.00  0.00    +0.048 C 
ATOM     18  C   UNL     1      30.105   6.860 -18.315  0.00  0.00    +0.047 A 
ATOM     19  C   UNL     1      29.881   4.036 -18.476  0.00  0.00    +0.012 A 
ATOM     20  C   UNL     1      29.933   6.084 -17.164  0.00  0.00    +0.004 A 
ATOM     21  C   UNL     1      29.814   4.694 -17.239  0.00  0.00    +0.001 A 
ENDBRANCH  10  12
BRANCH   2  22
ATOM     22  C   UNL     1      35.583   8.336 -27.760  0.00  0.00    +0.251 C 
ATOM     23  O   UNL     1      35.292   9.166 -28.631  0.00  0.00    -0.270 OA
ATOM     24  N   UNL     1      36.739   7.571 -27.892  0.00  0.00    -0.310 N 
ATOM     25  H   UNL     1      36.955   6.930 -27.176  0.00  0.00    +0.149 HD
BRANCH  24  26
ATOM     26  C   UNL     1      37.663   7.665 -29.048  0.00  0.00    +0.111 C 
BRANCH  26  27
ATOM     27  C   UNL     1      38.922   8.374 -28.617  0.00  0.00    -0.013 C 
ATOM     28  C   UNL     1      38.986   9.912 -28.156  0.00  0.00    +0.012 C 
ATOM     29  C   UNL     1      39.813   8.861 -29.816  0.00  0.00    +0.012 C 
ATOM     30  C   UNL     1      40.450   8.056 -27.973  0.00  0.00    +0.012 C 
ATOM     31  C   UNL     1      40.475   9.537 -28.577  0.00  0.00    -0.009 C 
ENDBRANCH  26  27
ENDBRANCH  24  26
ENDBRANCH   2  22
TORSDOF 4
ENDMDL
MODEL 3
REMARK VINA RESULT:    -9.552      3.251      4.717
REMARK INTER + INTRA:         -12.525
REMARK INTER:                 -12.401
REMARK INTRA:                  -0.125
REMARK UNBOUND:                -0.740
REMARK  Name = CTX-1020818
REMARK  5 active torsions:
REMARK  status: ('A' for Active; 'I' for Inactive)
REMARK    1  A    between atoms: C_2  and  C_4
REMARK    2  A    between atoms: N_9  and  C_12
REMARK    3  A    between atoms: C_12  and  C_14
REMARK    4  A    between atoms: C_15  and  C_20
REMARK    5  A    between atoms: C_23  and  C_26
REMARK                            x       y       z     vdW  Elec       q    Type
REMARK                         _______ _______ _______ _____ _____    ______ ____
ROOT
ATOM      1  S   UNL     1      22.709   1.279 -18.222  0.00  0.00    -0.088 S 
ATOM      2  C   UNL     1      21.895  -0.073 -18.907  0.00  0.00    +0.074 A 
ATOM      3  C   UNL     1      24.027   1.142 -19.299  0.00  0.00    -0.003 A 
ATOM      4  C   UNL     1      22.657  -0.599 -19.950  0.00  0.00    +0.026 A 
ATOM      5  C   UNL     1      23.885   0.111 -20.208  0.00  0.00    -0.019 A 
ATOM      6  C   UNL     1      25.207   2.070 -19.279  0.00  0.00    +0.062 C 
ATOM      7  C   UNL     1      24.934  -0.195 -21.269  0.00  0.00    +0.144 C 
ATOM      8  C   UNL     1      26.369   1.433 -20.057  0.00  0.00    +0.113 C 
ATOM      9  N   UNL     1      25.915   0.906 -21.355  0.00  0.00    -0.290 N 
ATOM     10  C   UNL     1      26.252   1.457 -22.597  0.00  0.00    +0.283 C 
ATOM     11  O   UNL     1      25.699   1.043 -23.641  0.00  0.00    -0.267 OA
ENDROOT
BRANCH  10  12
ATOM     12  C   UNL     1      27.235   2.536 -22.651  0.00  0.00    +0.194 A 
ATOM     13  O   UNL     1      28.327   2.476 -21.817  0.00  0.00    -0.450 OA
ATOM     14  C   UNL     1      27.342   3.684 -23.430  0.00  0.00    +0.008 A 
ATOM     15  C   UNL     1      29.093   3.572 -22.017  0.00  0.00    +0.136 A 
ATOM     16  C   UNL     1      28.559   4.332 -23.040  0.00  0.00    +0.024 A 
ATOM     17  C   UNL     1      26.389   4.187 -24.450  0.00  0.00    +0.048 C 
ATOM     18  C   UNL     1      30.263   3.880 -21.329  0.00  0.00    +0.047 A 
ATOM     19  C   UNL     1      29.260   5.485 -23.443  0.00  0.00    +0.012 A 
ATOM     20  C   UNL     1      30.944   5.028 -21.748  0.00  0.00    +0.004 A 
ATOM     21  C   UNL     1      30.458   5.817 -22.794  0.00  0.00    +0.001 A 
ENDBRANCH  10  12
BRANCH   2  22
ATOM     22  C   UNL     1      20.594  -0.573 -18.418  0.00  0.00    +0.251 C 
ATOM     23  O   UNL     1      19.653  -0.791 -19.194  0.00  0.00    -0.270 OA
ATOM     24  N   UNL     1      20.433  -0.801 -17.054  0.00  0.00    -0.310 N 
ATOM     25  H   UNL     1      21.202  -0.635 -16.463  0.00  0.00    +0.149 HD
BRANCH  24  26
ATOM     26  C   UNL     1      19.170  -1.277 -16.441  0.00  0.00    +0.111 C 
BRANCH  26  27
ATOM     27  C   UNL     1      18.753  -0.314 -15.359  0.00  0.00    -0.013 C 
ATOM     28  C   UNL     1      18.196   1.169 -15.628  0.00  0.00    +0.012 C 
ATOM     29  C   UNL     1      19.959   0.434 -14.683  0.00  0.00    +0.012 C 
ATOM     30  C   UNL     1      18.206  -0.294 -13.761  0.00  0.00    +0.012 C 
ATOM     31  C   UNL     1      18.711   1.181 -14.121  0.00  0.00    -0.009 C 
ENDBRANCH  26  27
ENDBRANCH  24  26
ENDBRANCH   2  22
TORSDOF 4
ENDMDL
MODEL 4
REMARK VINA RESULT:    -9.262      4.914      7.177
REMARK INTER + INTRA:         -12.168
REMARK INTER:                 -11.811
REMARK INTRA:                  -0.356
REMARK UNBOUND:                -0.740
REMARK  Name = CTX-1020818
REMARK  5 active torsions:
REMARK  status: ('A' for Active; 'I' for Inactive)
REMARK    1  A    between atoms: C_2  and  C_4
REMARK    2  A    between atoms: N_9  and  C_12
REMARK    3  A    between atoms: C_12  and  C_14
REMARK    4  A    between atoms: C_15  and  C_20
REMARK    5  A    between atoms: C_23  and  C_26
REMARK                            x       y       z     vdW  Elec       q    Type
REMARK                         _______ _______ _______ _____ _____    ______ ____
ROOT
ATOM      1  S   UNL     1      26.708   1.383 -19.296  0.00  0.00    -0.088 S 
ATOM      2  C   UNL     1      25.281   1.006 -20.178  0.00  0.00    +0.074 A 
ATOM      3  C   UNL     1      27.415   2.200 -20.619  0.00  0.00    -0.003 A 
ATOM      4  C   UNL     1      25.380   1.518 -21.472  0.00  0.00    +0.026 A 
ATOM      5  C   UNL     1      26.602   2.237 -21.735  0.00  0.00    -0.019 A 
ATOM      6  C   UNL     1      28.771   2.841 -20.561  0.00  0.00    +0.062 C 
ATOM      7  C   UNL     1      27.022   2.920 -23.030  0.00  0.00    +0.144 C 
ATOM      8  C   UNL     1      29.272   3.101 -21.991  0.00  0.00    +0.113 C 
ATOM      9  N   UNL     1      28.230   3.741 -22.811  0.00  0.00    -0.290 N 
ATOM     10  C   UNL     1      28.275   5.066 -23.259  0.00  0.00    +0.283 C 
ATOM     11  O   UNL     1      27.277   5.577 -23.818  0.00  0.00    -0.267 OA
ENDROOT
BRANCH  10  12
ATOM     12  C   UNL     1      29.488   5.849 -23.039  0.00  0.00    +0.194 A 
ATOM     13  O   UNL     1      30.240   6.220 -24.129  0.00  0.00    -0.450 OA
ATOM     14  C   UNL     1      30.090   6.366 -21.897  0.00  0.00    +0.008 A 
ATOM     15  C   UNL     1      31.317   6.917 -23.704  0.00  0.00    +0.136 A 
ATOM     16  C   UNL     1      31.251   7.081 -22.333  0.00  0.00    +0.024 A 
ATOM     17  C   UNL     1      29.661   6.202 -20.485  0.00  0.00    +0.048 C 
ATOM     18  C   UNL     1      32.326   7.426 -24.515  0.00  0.00    +0.047 A 
ATOM     19  C   UNL     1      32.257   7.846 -21.711  0.00  0.00    +0.012 A 
ATOM     20  C   UNL     1      33.312   8.185 -23.876  0.00  0.00    +0.004 A 
ATOM     21  C   UNL     1      33.277   8.402 -22.496  0.00  0.00    +0.001 A 
ENDBRANCH  10  12
BRANCH   2  22
ATOM     22  C   UNL     1      24.153   0.239 -19.612  0.00  0.00    +0.251 C 
ATOM     23  O   UNL     1      23.586   0.597 -18.570  0.00  0.00    -0.270 OA
ATOM     24  N   UNL     1      23.725  -0.909 -20.272  0.00  0.00    -0.310 N 
ATOM     25  H   UNL     1      24.182  -1.161 -21.107  0.00  0.00    +0.149 HD
BRANCH  24  26
ATOM     26  C   UNL     1      22.621  -1.775 -19.790  0.00  0.00    +0.111 C 
BRANCH  26  27
ATOM     27  C   UNL     1      22.291  -2.791 -20.854  0.00  0.00    -0.013 C 
ATOM     28  C   UNL     1      20.886  -2.869 -21.631  0.00  0.00    +0.012 C 
ATOM     29  C   UNL     1      21.870  -4.192 -20.279  0.00  0.00    +0.012 C 
ATOM     30  C   UNL     1      23.042  -3.793 -21.988  0.00  0.00    +0.012 C 
ATOM     31  C   UNL     1      21.541  -4.312 -21.798  0.00  0.00    -0.009 C 
ENDBRANCH  26  27
ENDBRANCH  24  26
ENDBRANCH   2  22
TORSDOF 4
ENDMDL
MODEL 5
REMARK VINA RESULT:    -9.221      2.707     10.548
REMARK INTER + INTRA:         -12.117
REMARK INTER:                 -11.758
REMARK INTRA:                  -0.359
REMARK UNBOUND:                -0.740
REMARK  Name = CTX-1020818
REMARK  5 active torsions:
REMARK  status: ('A' for Active; 'I' for Inactive)
REMARK    1  A    between atoms: C_2  and  C_4
REMARK    2  A    between atoms: N_9  and  C_12
REMARK    3  A    between atoms: C_12  and  C_14
REMARK    4  A    between atoms: C_15  and  C_20
REMARK    5  A    between atoms: C_23  and  C_26
REMARK                            x       y       z     vdW  Elec       q    Type
REMARK                         _______ _______ _______ _____ _____    ______ ____
ROOT
ATOM      1  S   UNL     1      23.884   0.535 -22.978  0.00  0.00    -0.088 S 
ATOM      2  C   UNL     1      25.518   1.055 -22.840  0.00  0.00    +0.074 A 
ATOM      3  C   UNL     1      23.662   0.496 -21.286  0.00  0.00    -0.003 A 
ATOM      4  C   UNL     1      25.855   1.188 -21.493  0.00  0.00    +0.026 A 
ATOM      5  C   UNL     1      24.781   0.892 -20.578  0.00  0.00    -0.019 A 
ATOM      6  C   UNL     1      22.369   0.100 -20.634  0.00  0.00    +0.062 C 
ATOM      7  C   UNL     1      24.811   0.943 -19.056  0.00  0.00    +0.144 C 
ATOM      8  C   UNL     1      22.626  -0.237 -19.156  0.00  0.00    +0.113 C 
ATOM      9  N   UNL     1      23.447   0.801 -18.510  0.00  0.00    -0.290 N 
ATOM     10  C   UNL     1      22.976   1.697 -17.542  0.00  0.00    +0.283 C 
ATOM     11  O   UNL     1      23.697   2.646 -17.159  0.00  0.00    -0.267 OA
ENDROOT
BRANCH  10  12
ATOM     12  C   UNL     1      21.627   1.523 -17.010  0.00  0.00    +0.194 A 
ATOM     13  O   UNL     1      21.477   0.987 -15.753  0.00  0.00    -0.450 OA
ATOM     14  C   UNL     1      20.364   1.822 -17.512  0.00  0.00    +0.008 A 
ATOM     15  C   UNL     1      20.160   0.900 -15.466  0.00  0.00    +0.136 A 
ATOM     16  C   UNL     1      19.423   1.448 -16.499  0.00  0.00    +0.024 A 
ATOM     17  C   UNL     1      20.019   2.386 -18.840  0.00  0.00    +0.048 C 
ATOM     18  C   UNL     1      19.616   0.373 -14.298  0.00  0.00    +0.047 A 
ATOM     19  C   UNL     1      18.024   1.512 -16.351  0.00  0.00    +0.012 A 
ATOM     20  C   UNL     1      18.225   0.450 -14.172  0.00  0.00    +0.004 A 
ATOM     21  C   UNL     1      17.438   1.017 -15.177  0.00  0.00    +0.001 A 
ENDBRANCH  10  12
BRANCH   2  22
ATOM     22  C   UNL     1      26.395   1.298 -24.003  0.00  0.00    +0.251 C 
ATOM     23  O   UNL     1      27.395   0.599 -24.215  0.00  0.00    -0.270 OA
ATOM     24  N   UNL     1      26.081   2.338 -24.874  0.00  0.00    -0.310 N 
ATOM     25  H   UNL     1      25.272   2.867 -24.691  0.00  0.00    +0.149 HD
BRANCH  24  26
ATOM     26  C   UNL     1      26.896   2.695 -26.060  0.00  0.00    +0.111 C 
BRANCH  26  27
ATOM     27  C   UNL     1      26.454   1.857 -27.233  0.00  0.00    -0.013 C 
ATOM     28  C   UNL     1      26.077   0.297 -27.144  0.00  0.00    +0.012 C 
ATOM     29  C   UNL     1      27.641   1.356 -28.132  0.00  0.00    +0.012 C 
ATOM     30  C   UNL     1      25.732   2.006 -28.752  0.00  0.00    +0.012 C 
ATOM     31  C   UNL     1      26.415   0.561 -28.677  0.00  0.00    -0.009 C 
ENDBRANCH  26  27
ENDBRANCH  24  26
ENDBRANCH   2  22
TORSDOF 4
ENDMDL
