REMARK  Name = CTX-1019471
REMARK  5 active torsions:
REMARK  status: ('A' for Active; 'I' for Inactive)
REMARK    1  A    between atoms: C_2  and  C_4
REMARK    2  A    between atoms: N_3  and  C_5
REMARK    3  A    between atoms: C_5  and  C_8
REMARK    4  A    between atoms: C_21  and  C_23
REMARK    5  A    between atoms: C_25  and  C_28
REMARK                            x       y       z     vdW  Elec       q    Type
REMARK                         _______ _______ _______ _____ _____    ______ ____
ROOT
ATOM      1  C   UNL     1       3.125  -0.942  -0.882  0.00  0.00    +0.126 A 
ATOM      2  N   UNL     1       4.084  -1.734  -0.309  0.00  0.00    -0.245 NA
ATOM      3  C   UNL     1       2.750  -1.020  -2.216  0.00  0.00    +0.033 A 
ATOM      4  C   UNL     1       4.684  -2.662  -1.118  0.00  0.00    +0.063 A 
ATOM      5  C   UNL     1       3.376  -1.955  -3.024  0.00  0.00    +0.008 A 
ATOM      6  C   UNL     1       4.359  -2.788  -2.481  0.00  0.00    -0.023 A 
ATOM      7  C   UNL     1       5.763  -3.565  -0.508  0.00  0.00    +0.163 C 
ATOM      8  C   UNL     1       4.968  -3.853  -3.356  0.00  0.00    +0.056 C 
ATOM      9  N   UNL     1       6.065  -4.735  -1.337  0.00  0.00    -0.289 N 
ATOM     10  C   UNL     1       6.221  -4.482  -2.760  0.00  0.00    +0.113 C 
ATOM     11  C   UNL     1       6.480  -5.937  -0.756  0.00  0.00    +0.283 C 
ATOM     12  O   UNL     1       7.030  -5.958   0.344  0.00  0.00    -0.267 OA
ENDROOT
BRANCH  11  13
ATOM     13  C   UNL     1       5.968  -7.149  -1.405  0.00  0.00    +0.194 A 
ATOM     14  O   UNL     1       4.813  -6.973  -2.137  0.00  0.00    -0.450 OA
ATOM     15  C   UNL     1       6.027  -8.498  -1.053  0.00  0.00    +0.008 A 
ATOM     16  C   UNL     1       3.960  -7.919  -1.677  0.00  0.00    +0.136 A 
ATOM     17  C   UNL     1       4.647  -8.826  -0.884  0.00  0.00    +0.024 A 
ATOM     18  C   UNL     1       7.176  -9.386  -0.762  0.00  0.00    +0.048 C 
ATOM     19  C   UNL     1       2.587  -7.920  -1.892  0.00  0.00    +0.047 A 
ATOM     20  C   UNL     1       3.903  -9.775  -0.164  0.00  0.00    +0.012 A 
ATOM     21  C   UNL     1       1.865  -8.842  -1.139  0.00  0.00    +0.004 A 
ATOM     22  C   UNL     1       2.504  -9.731  -0.267  0.00  0.00    +0.001 A 
ENDBRANCH  11  13
BRANCH   1  24
ATOM     23  O   UNL     1       1.591   0.837  -0.524  0.00  0.00    -0.269 OA
ATOM     24  C   UNL     1       2.432   0.086  -0.034  0.00  0.00    +0.263 C 
ATOM     25  N   UNL     1       2.791   0.128   1.294  0.00  0.00    -0.306 N 
ATOM     26  H   UNL     1       3.487  -0.485   1.624  0.00  0.00    +0.149 HD
BRANCH  25  27
ATOM     27  C   UNL     1       2.167   1.054   2.216  0.00  0.00    +0.140 C 
BRANCH  27  28
ATOM     28  C   UNL     1       0.976   0.452   2.909  0.00  0.00    -0.027 A 
ATOM     29  C   UNL     1       1.100  -0.130   4.172  0.00  0.00    +0.025 A 
ATOM     30  C   UNL     1      -0.284   0.443   2.285  0.00  0.00    +0.025 A 
ATOM     31  C   UNL     1      -0.030  -0.683   4.768  0.00  0.00    +0.111 A 
ATOM     32  C   UNL     1      -1.344  -0.143   2.961  0.00  0.00    +0.111 A 
ATOM     33  N   UNL     1      -1.245  -0.707   4.185  0.00  0.00    -0.263 NA
ENDBRANCH  27  28
ENDBRANCH  25  27
ENDBRANCH   1  24
TORSDOF 4
