MODEL 1
REMARK VINA RESULT:   -12.010      0.000      0.000
REMARK INTER + INTRA:         -15.789
REMARK INTER:                 -15.520
REMARK INTRA:                  -0.269
REMARK UNBOUND:                -0.269
REMARK  Name = CTX-1020817
REMARK  6 active torsions:
REMARK  status: ('A' for Active; 'I' for Inactive)
REMARK    1  A    between atoms: C_3  and  C_6
REMARK    2  A    between atoms: C_21  and  C_22
REMARK    3  A    between atoms: N_24  and  C_25
REMARK    4  A    between atoms: C_25  and  C_26
REMARK    5  A    between atoms: C_31  and  N_32
REMARK    6  A    between atoms: N_37  and  C_38
REMARK                            x       y       z     vdW  Elec       q    Type
REMARK                         _______ _______ _______ _____ _____    ______ ____
ROOT
ATOM      1  C   UNL     1      24.815   1.195 -20.038  0.00  0.00    +0.255 C 
ATOM      2  O   UNL     1      25.584   1.435 -20.997  0.00  0.00    -0.269 OA
ATOM      3  N   UNL     1      25.206   1.775 -18.632  0.00  0.00    -0.292 N 
ATOM      4  C   UNL     1      25.123   3.004 -17.193  0.00  0.00    +0.144 C 
ATOM      5  C   UNL     1      26.579   1.770 -19.069  0.00  0.00    +0.113 C 
ATOM      6  C   UNL     1      26.653   3.935 -16.569  0.00  0.00    -0.019 A 
ATOM      7  C   UNL     1      27.179   2.169 -17.891  0.00  0.00    +0.062 C 
ATOM      8  C   UNL     1      27.599   3.343 -17.363  0.00  0.00    -0.003 A 
ATOM      9  C   UNL     1      27.968   4.709 -16.131  0.00  0.00    +0.026 A 
ATOM     10  S   UNL     1      29.017   3.602 -18.097  0.00  0.00    -0.088 S 
ATOM     11  C   UNL     1      29.220   4.663 -16.862  0.00  0.00    +0.074 A 
ENDROOT
BRANCH   1  14
ATOM     12 CL   UNL     1      22.071   0.329 -18.246  0.00  0.00    -0.082 Cl
ATOM     13  C   UNL     1      22.872  -0.435 -19.615  0.00  0.00    +0.068 A 
ATOM     14  C   UNL     1      24.006  -0.020 -20.343  0.00  0.00    +0.094 A 
ATOM     15  C   UNL     1      22.333  -1.669 -20.101  0.00  0.00    +0.011 A 
ATOM     16  S   UNL     1      24.315  -1.129 -21.605  0.00  0.00    -0.081 S 
ATOM     17  C   UNL     1      23.003  -2.212 -21.202  0.00  0.00    +0.040 A 
ATOM     18  C   UNL     1      21.234  -2.386 -19.633  0.00  0.00    +0.030 A 
ATOM     19  C   UNL     1      22.568  -3.469 -21.742  0.00  0.00    +0.126 A 
ATOM     20  C   UNL     1      20.824  -3.566 -20.178  0.00  0.00    +0.111 A 
ATOM     21  N   UNL     1      21.474  -4.114 -21.204  0.00  0.00    -0.262 NA
ENDBRANCH   1  14
BRANCH  11  22
ATOM     22  C   UNL     1      30.651   4.973 -16.908  0.00  0.00    +0.251 C 
ATOM     23  O   UNL     1      31.461   4.721 -16.004  0.00  0.00    -0.270 OA
ATOM     24  N   UNL     1      31.085   5.810 -17.870  0.00  0.00    -0.307 N 
ATOM     25  H   UNL     1      32.023   6.104 -17.896  0.00  0.00    +0.149 HD
BRANCH  24  26
ATOM     26  C   UNL     1      30.159   6.253 -18.839  0.00  0.00    +0.139 C 
BRANCH  26  27
ATOM     27  C   UNL     1      30.811   6.489 -20.124  0.00  0.00    -0.030 A 
ATOM     28  C   UNL     1      32.188   6.634 -20.181  0.00  0.00    +0.007 A 
ATOM     29  C   UNL     1      29.995   6.639 -21.236  0.00  0.00    +0.007 A 
ATOM     30  C   UNL     1      32.748   7.044 -21.370  0.00  0.00    +0.023 A 
ATOM     31  C   UNL     1      30.581   6.971 -22.431  0.00  0.00    +0.023 A 
ATOM     32  C   UNL     1      31.950   7.261 -22.502  0.00  0.00    +0.030 A 
BRANCH  32  33
ATOM     33  N   UNL     1      32.482   7.804 -23.639  0.00  0.00    -0.333 N 
ATOM     34  C   UNL     1      31.757   7.825 -24.894  0.00  0.00    +0.086 C 
ATOM     35  C   UNL     1      33.765   8.501 -23.643  0.00  0.00    +0.086 C 
ATOM     36  C   UNL     1      32.645   7.435 -26.053  0.00  0.00    -0.060 C 
ATOM     37  C   UNL     1      34.559   8.088 -24.897  0.00  0.00    -0.060 C 
ATOM     38  N   UNL     1      33.809   8.302 -26.117  0.00  0.00    +0.380 N 
ATOM     39  C   UNL     1      34.623   8.016 -27.293  0.00  0.00    -0.096 C 
ATOM     40  H   UNL     1      33.524   9.278 -26.200  0.00  0.00    -0.082 HD
ENDBRANCH  32  33
ENDBRANCH  26  27
ENDBRANCH  24  26
ENDBRANCH  11  22
TORSDOF 5
ENDMDL
MODEL 2
REMARK VINA RESULT:   -11.446      3.534      4.245
REMARK INTER + INTRA:         -15.061
REMARK INTER:                 -14.378
REMARK INTRA:                  -0.683
REMARK UNBOUND:                -0.269
REMARK  Name = CTX-1020817
REMARK  6 active torsions:
REMARK  status: ('A' for Active; 'I' for Inactive)
REMARK    1  A    between atoms: C_3  and  C_6
REMARK    2  A    between atoms: C_21  and  C_22
REMARK    3  A    between atoms: N_24  and  C_25
REMARK    4  A    between atoms: C_25  and  C_26
REMARK    5  A    between atoms: C_31  and  N_32
REMARK    6  A    between atoms: N_37  and  C_38
REMARK                            x       y       z     vdW  Elec       q    Type
REMARK                         _______ _______ _______ _____ _____    ______ ____
ROOT
ATOM      1  C   UNL     1      24.177   2.429 -15.155  0.00  0.00    +0.255 C 
ATOM      2  O   UNL     1      24.668   2.930 -14.118  0.00  0.00    -0.269 OA
ATOM      3  N   UNL     1      25.040   2.484 -16.466  0.00  0.00    -0.292 N 
ATOM      4  C   UNL     1      26.204   1.792 -17.791  0.00  0.00    +0.144 C 
ATOM      5  C   UNL     1      25.705   3.638 -15.918  0.00  0.00    +0.113 C 
ATOM      6  C   UNL     1      27.868   2.606 -18.199  0.00  0.00    -0.019 A 
ATOM      7  C   UNL     1      26.498   3.960 -17.001  0.00  0.00    +0.062 C 
ATOM      8  C   UNL     1      27.772   3.703 -17.385  0.00  0.00    -0.003 A 
ATOM      9  C   UNL     1      29.264   3.317 -18.455  0.00  0.00    +0.026 A 
ATOM     10  S   UNL     1      28.648   4.748 -16.515  0.00  0.00    -0.088 S 
ATOM     11  C   UNL     1      29.796   4.384 -17.629  0.00  0.00    +0.074 A 
ENDROOT
BRANCH   1  14
ATOM     12 CL   UNL     1      22.186   0.998 -17.497  0.00  0.00    -0.082 Cl
ATOM     13  C   UNL     1      21.819   1.822 -15.984  0.00  0.00    +0.068 A 
ATOM     14  C   UNL     1      22.691   2.384 -15.029  0.00  0.00    +0.094 A 
ATOM     15  C   UNL     1      20.443   1.974 -15.623  0.00  0.00    +0.011 A 
ATOM     16  S   UNL     1      21.785   3.016 -13.727  0.00  0.00    -0.081 S 
ATOM     17  C   UNL     1      20.222   2.618 -14.401  0.00  0.00    +0.040 A 
ATOM     18  C   UNL     1      19.308   1.559 -16.315  0.00  0.00    +0.030 A 
ATOM     19  C   UNL     1      18.875   2.858 -13.964  0.00  0.00    +0.126 A 
ATOM     20  C   UNL     1      18.039   1.777 -15.868  0.00  0.00    +0.111 A 
ATOM     21  N   UNL     1      17.811   2.421 -14.724  0.00  0.00    -0.262 NA
ENDBRANCH   1  14
BRANCH  11  22
ATOM     22  C   UNL     1      30.804   5.429 -17.436  0.00  0.00    +0.251 C 
ATOM     23  O   UNL     1      31.413   5.639 -16.376  0.00  0.00    -0.270 OA
ATOM     24  N   UNL     1      30.904   6.391 -18.372  0.00  0.00    -0.307 N 
ATOM     25  H   UNL     1      31.515   7.153 -18.250  0.00  0.00    +0.149 HD
BRANCH  24  26
ATOM     26  C   UNL     1      30.110   6.279 -19.534  0.00  0.00    +0.139 C 
BRANCH  26  27
ATOM     27  C   UNL     1      30.902   6.508 -20.740  0.00  0.00    -0.030 A 
ATOM     28  C   UNL     1      32.276   6.660 -20.643  0.00  0.00    +0.007 A 
ATOM     29  C   UNL     1      30.215   6.646 -21.937  0.00  0.00    +0.007 A 
ATOM     30  C   UNL     1      32.964   7.064 -21.763  0.00  0.00    +0.023 A 
ATOM     31  C   UNL     1      30.931   6.973 -23.061  0.00  0.00    +0.023 A 
ATOM     32  C   UNL     1      32.299   7.268 -22.980  0.00  0.00    +0.030 A 
BRANCH  32  33
ATOM     33  N   UNL     1      32.953   7.807 -24.054  0.00  0.00    -0.333 N 
ATOM     34  C   UNL     1      32.313   7.961 -25.346  0.00  0.00    +0.086 C 
ATOM     35  C   UNL     1      34.298   8.365 -23.947  0.00  0.00    +0.086 C 
ATOM     36  C   UNL     1      33.228   7.536 -26.471  0.00  0.00    -0.060 C 
ATOM     37  C   UNL     1      35.122   7.930 -25.173  0.00  0.00    -0.060 C 
ATOM     38  N   UNL     1      34.476   8.279 -26.422  0.00  0.00    +0.380 N 
ATOM     39  C   UNL     1      35.329   7.964 -27.563  0.00  0.00    -0.096 C 
ATOM     40  H   UNL     1      34.297   9.282 -26.469  0.00  0.00    -0.082 HD
ENDBRANCH  32  33
ENDBRANCH  26  27
ENDBRANCH  24  26
ENDBRANCH  11  22
TORSDOF 5
ENDMDL
MODEL 3
REMARK VINA RESULT:   -11.216      2.993      4.081
REMARK INTER + INTRA:         -14.763
REMARK INTER:                 -14.290
REMARK INTRA:                  -0.473
REMARK UNBOUND:                -0.269
REMARK  Name = CTX-1020817
REMARK  6 active torsions:
REMARK  status: ('A' for Active; 'I' for Inactive)
REMARK    1  A    between atoms: C_3  and  C_6
REMARK    2  A    between atoms: C_21  and  C_22
REMARK    3  A    between atoms: N_24  and  C_25
REMARK    4  A    between atoms: C_25  and  C_26
REMARK    5  A    between atoms: C_31  and  N_32
REMARK    6  A    between atoms: N_37  and  C_38
REMARK                            x       y       z     vdW  Elec       q    Type
REMARK                         _______ _______ _______ _____ _____    ______ ____
ROOT
ATOM      1  C   UNL     1      24.981  -0.012 -22.086  0.00  0.00    +0.255 C 
ATOM      2  O   UNL     1      25.917  -0.648 -21.551  0.00  0.00    -0.269 OA
ATOM      3  N   UNL     1      25.287   1.444 -22.590  0.00  0.00    -0.292 N 
ATOM      4  C   UNL     1      25.697   2.769 -23.880  0.00  0.00    +0.144 C 
ATOM      5  C   UNL     1      26.341   1.505 -21.610  0.00  0.00    +0.113 C 
ATOM      6  C   UNL     1      27.225   3.883 -23.734  0.00  0.00    -0.019 A 
ATOM      7  C   UNL     1      26.726   2.818 -21.794  0.00  0.00    +0.062 C 
ATOM      8  C   UNL     1      27.678   3.461 -22.512  0.00  0.00    -0.003 A 
ATOM      9  C   UNL     1      28.545   4.748 -23.567  0.00  0.00    +0.026 A 
ATOM     10  S   UNL     1      29.019   3.260 -21.629  0.00  0.00    -0.088 S 
ATOM     11  C   UNL     1      29.564   4.492 -22.566  0.00  0.00    +0.074 A 
ENDROOT
BRANCH   1  14
ATOM     12 CL   UNL     1      23.322   1.145 -19.365  0.00  0.00    -0.082 Cl
ATOM     13  C   UNL     1      22.959  -0.149 -20.503  0.00  0.00    +0.068 A 
ATOM     14  C   UNL     1      23.676  -0.579 -21.638  0.00  0.00    +0.094 A 
ATOM     15  C   UNL     1      21.769  -0.915 -20.287  0.00  0.00    +0.011 A 
ATOM     16  S   UNL     1      22.832  -1.853 -22.401  0.00  0.00    -0.081 S 
ATOM     17  C   UNL     1      21.530  -1.913 -21.237  0.00  0.00    +0.040 A 
ATOM     18  C   UNL     1      20.823  -0.790 -19.272  0.00  0.00    +0.030 A 
ATOM     19  C   UNL     1      20.383  -2.765 -21.091  0.00  0.00    +0.126 A 
ATOM     20  C   UNL     1      19.729  -1.596 -19.167  0.00  0.00    +0.111 A 
ATOM     21  N   UNL     1      19.506  -2.574 -20.044  0.00  0.00    -0.262 NA
ENDBRANCH   1  14
BRANCH  11  22
ATOM     22  C   UNL     1      30.773   4.941 -21.872  0.00  0.00    +0.251 C 
ATOM     23  O   UNL     1      31.193   4.470 -20.805  0.00  0.00    -0.270 OA
ATOM     24  N   UNL     1      31.332   6.102 -22.263  0.00  0.00    -0.307 N 
ATOM     25  H   UNL     1      32.101   6.480 -21.779  0.00  0.00    +0.149 HD
BRANCH  24  26
ATOM     26  C   UNL     1      30.787   6.762 -23.386  0.00  0.00    +0.139 C 
BRANCH  26  27
ATOM     27  C   UNL     1      31.836   7.355 -24.211  0.00  0.00    -0.030 A 
ATOM     28  C   UNL     1      31.630   7.521 -25.572  0.00  0.00    +0.007 A 
ATOM     29  C   UNL     1      33.041   7.655 -23.593  0.00  0.00    +0.007 A 
ATOM     30  C   UNL     1      32.701   7.901 -26.348  0.00  0.00    +0.023 A 
ATOM     31  C   UNL     1      34.075   8.108 -24.374  0.00  0.00    +0.023 A 
ATOM     32  C   UNL     1      33.951   8.160 -25.769  0.00  0.00    +0.030 A 
BRANCH  32  33
ATOM     33  N   UNL     1      35.048   8.396 -26.551  0.00  0.00    -0.333 N 
ATOM     34  C   UNL     1      34.931   8.839 -27.927  0.00  0.00    +0.086 C 
ATOM     35  C   UNL     1      36.409   8.328 -26.025  0.00  0.00    +0.086 C 
ATOM     36  C   UNL     1      35.885   8.093 -28.831  0.00  0.00    -0.060 C 
ATOM     37  C   UNL     1      37.310   7.615 -27.051  0.00  0.00    -0.060 C 
ATOM     38  N   UNL     1      37.252   8.235 -28.359  0.00  0.00    +0.380 N 
ATOM     39  C   UNL     1      38.201   7.617 -29.278  0.00  0.00    -0.096 C 
ATOM     40  H   UNL     1      37.510   9.220 -28.304  0.00  0.00    -0.082 HD
ENDBRANCH  32  33
ENDBRANCH  26  27
ENDBRANCH  24  26
ENDBRANCH  11  22
TORSDOF 5
ENDMDL
MODEL 4
REMARK VINA RESULT:   -10.903      3.277      5.134
REMARK INTER + INTRA:         -14.358
REMARK INTER:                 -13.729
REMARK INTRA:                  -0.630
REMARK UNBOUND:                -0.269
REMARK  Name = CTX-1020817
REMARK  6 active torsions:
REMARK  status: ('A' for Active; 'I' for Inactive)
REMARK    1  A    between atoms: C_3  and  C_6
REMARK    2  A    between atoms: C_21  and  C_22
REMARK    3  A    between atoms: N_24  and  C_25
REMARK    4  A    between atoms: C_25  and  C_26
REMARK    5  A    between atoms: C_31  and  N_32
REMARK    6  A    between atoms: N_37  and  C_38
REMARK                            x       y       z     vdW  Elec       q    Type
REMARK                         _______ _______ _______ _____ _____    ______ ____
ROOT
ATOM      1  C   UNL     1      26.401   1.445 -23.053  0.00  0.00    +0.255 C 
ATOM      2  O   UNL     1      27.408   0.708 -23.149  0.00  0.00    -0.269 OA
ATOM      3  N   UNL     1      26.645   2.990 -22.902  0.00  0.00    -0.292 N 
ATOM      4  C   UNL     1      26.759   4.782 -23.505  0.00  0.00    +0.144 C 
ATOM      5  C   UNL     1      27.933   2.678 -22.338  0.00  0.00    +0.113 C 
ATOM      6  C   UNL     1      28.333   5.819 -23.300  0.00  0.00    -0.019 A 
ATOM      7  C   UNL     1      28.333   3.957 -22.004  0.00  0.00    +0.062 C 
ATOM      8  C   UNL     1      29.083   4.924 -22.584  0.00  0.00    -0.003 A 
ATOM      9  C   UNL     1      29.699   6.610 -23.132  0.00  0.00    +0.026 A 
ATOM     10  S   UNL     1      30.603   4.445 -22.300  0.00  0.00    -0.088 S 
ATOM     11  C   UNL     1      30.939   6.005 -22.684  0.00  0.00    +0.074 A 
ENDROOT
BRANCH   1  14
ATOM     12 CL   UNL     1      25.983   0.617 -19.792  0.00  0.00    -0.082 Cl
ATOM     13  C   UNL     1      25.034   0.253 -21.230  0.00  0.00    +0.068 A 
ATOM     14  C   UNL     1      25.241   0.642 -22.569  0.00  0.00    +0.094 A 
ATOM     15  C   UNL     1      23.867  -0.561 -21.073  0.00  0.00    +0.011 A 
ATOM     16  S   UNL     1      23.976   0.037 -23.545  0.00  0.00    -0.081 S 
ATOM     17  C   UNL     1      23.149  -0.795 -22.249  0.00  0.00    +0.040 A 
ATOM     18  C   UNL     1      23.353  -1.135 -19.912  0.00  0.00    +0.030 A 
ATOM     19  C   UNL     1      21.984  -1.634 -22.208  0.00  0.00    +0.126 A 
ATOM     20  C   UNL     1      22.231  -1.907 -19.893  0.00  0.00    +0.111 A 
ATOM     21  N   UNL     1      21.556  -2.169 -21.012  0.00  0.00    -0.262 NA
ENDBRANCH   1  14
BRANCH  11  22
ATOM     22  C   UNL     1      32.320   6.178 -22.228  0.00  0.00    +0.251 C 
ATOM     23  O   UNL     1      32.781   5.721 -21.172  0.00  0.00    -0.270 OA
ATOM     24  N   UNL     1      33.080   7.101 -22.850  0.00  0.00    -0.307 N 
ATOM     25  H   UNL     1      33.988   7.304 -22.531  0.00  0.00    +0.149 HD
BRANCH  24  26
ATOM     26  C   UNL     1      32.539   7.768 -23.970  0.00  0.00    +0.139 C 
BRANCH  26  27
ATOM     27  C   UNL     1      33.561   8.015 -24.983  0.00  0.00    -0.030 A 
ATOM     28  C   UNL     1      33.247   7.877 -26.326  0.00  0.00    +0.007 A 
ATOM     29  C   UNL     1      34.843   8.302 -24.539  0.00  0.00    +0.007 A 
ATOM     30  C   UNL     1      34.274   7.927 -27.241  0.00  0.00    +0.023 A 
ATOM     31  C   UNL     1      35.841   8.426 -25.474  0.00  0.00    +0.023 A 
ATOM     32  C   UNL     1      35.593   8.160 -26.827  0.00  0.00    +0.030 A 
BRANCH  32  33
ATOM     33  N   UNL     1      36.630   8.067 -27.713  0.00  0.00    -0.333 N 
ATOM     34  C   UNL     1      38.002   7.891 -27.276  0.00  0.00    +0.086 C 
ATOM     35  C   UNL     1      36.421   8.025 -29.157  0.00  0.00    +0.086 C 
ATOM     36  C   UNL     1      38.947   8.787 -28.044  0.00  0.00    -0.060 C 
ATOM     37  C   UNL     1      37.475   8.912 -29.846  0.00  0.00    -0.060 C 
ATOM     38  N   UNL     1      38.827   8.549 -29.472  0.00  0.00    +0.380 N 
ATOM     39  C   UNL     1      39.808   9.322 -30.226  0.00  0.00    -0.096 C 
ATOM     40  H   UNL     1      39.011   7.569 -29.688  0.00  0.00    -0.082 HD
ENDBRANCH  32  33
ENDBRANCH  26  27
ENDBRANCH  24  26
ENDBRANCH  11  22
TORSDOF 5
ENDMDL
MODEL 5
REMARK VINA RESULT:   -10.493      5.896     10.578
REMARK INTER + INTRA:         -13.829
REMARK INTER:                 -13.126
REMARK INTRA:                  -0.703
REMARK UNBOUND:                -0.269
REMARK  Name = CTX-1020817
REMARK  6 active torsions:
REMARK  status: ('A' for Active; 'I' for Inactive)
REMARK    1  A    between atoms: C_3  and  C_6
REMARK    2  A    between atoms: C_21  and  C_22
REMARK    3  A    between atoms: N_24  and  C_25
REMARK    4  A    between atoms: C_25  and  C_26
REMARK    5  A    between atoms: C_31  and  N_32
REMARK    6  A    between atoms: N_37  and  C_38
REMARK                            x       y       z     vdW  Elec       q    Type
REMARK                         _______ _______ _______ _____ _____    ______ ____
ROOT
ATOM      1  C   UNL     1      25.656   3.234 -24.354  0.00  0.00    +0.255 C 
ATOM      2  O   UNL     1      26.460   4.126 -24.001  0.00  0.00    -0.269 OA
ATOM      3  N   UNL     1      25.277   2.137 -23.294  0.00  0.00    -0.292 N 
ATOM      4  C   UNL     1      24.186   1.314 -21.983  0.00  0.00    +0.144 C 
ATOM      5  C   UNL     1      26.542   2.395 -22.653  0.00  0.00    +0.113 C 
ATOM      6  C   UNL     1      24.811   0.955 -20.229  0.00  0.00    -0.019 A 
ATOM      7  C   UNL     1      26.491   1.415 -21.682  0.00  0.00    +0.062 C 
ATOM      8  C   UNL     1      26.113   1.352 -20.383  0.00  0.00    -0.003 A 
ATOM      9  C   UNL     1      25.391   0.725 -18.769  0.00  0.00    +0.026 A 
ATOM     10  S   UNL     1      27.376   1.979 -19.591  0.00  0.00    -0.088 S 
ATOM     11  C   UNL     1      26.663   1.247 -18.307  0.00  0.00    +0.074 A 
ENDROOT
BRANCH   1  14
ATOM     12 CL   UNL     1      26.925   0.536 -25.967  0.00  0.00    -0.082 Cl
ATOM     13  C   UNL     1      26.201   2.028 -26.559  0.00  0.00    +0.068 A 
ATOM     14  C   UNL     1      25.665   3.116 -25.840  0.00  0.00    +0.094 A 
ATOM     15  C   UNL     1      26.121   2.217 -27.975  0.00  0.00    +0.011 A 
ATOM     16  S   UNL     1      25.052   4.278 -26.932  0.00  0.00    -0.081 S 
ATOM     17  C   UNL     1      25.517   3.412 -28.378  0.00  0.00    +0.040 A 
ATOM     18  C   UNL     1      26.552   1.371 -28.994  0.00  0.00    +0.030 A 
ATOM     19  C   UNL     1      25.424   3.718 -29.777  0.00  0.00    +0.126 A 
ATOM     20  C   UNL     1      26.431   1.672 -30.318  0.00  0.00    +0.111 A 
ATOM     21  N   UNL     1      25.891   2.823 -30.716  0.00  0.00    -0.262 NA
ENDBRANCH   1  14
BRANCH  11  22
ATOM     22  C   UNL     1      27.706   1.266 -17.279  0.00  0.00    +0.251 C 
ATOM     23  O   UNL     1      28.373   0.282 -16.928  0.00  0.00    -0.270 OA
ATOM     24  N   UNL     1      27.783   2.345 -16.477  0.00  0.00    -0.307 N 
ATOM     25  H   UNL     1      28.419   2.371 -15.727  0.00  0.00    +0.149 HD
BRANCH  24  26
ATOM     26  C   UNL     1      26.929   3.437 -16.741  0.00  0.00    +0.139 C 
BRANCH  26  27
ATOM     27  C   UNL     1      25.647   3.284 -16.057  0.00  0.00    -0.030 A 
ATOM     28  C   UNL     1      25.585   2.588 -14.860  0.00  0.00    +0.007 A 
ATOM     29  C   UNL     1      24.521   3.783 -16.693  0.00  0.00    +0.007 A 
ATOM     30  C   UNL     1      24.343   2.296 -14.343  0.00  0.00    +0.023 A 
ATOM     31  C   UNL     1      23.296   3.549 -16.121  0.00  0.00    +0.023 A 
ATOM     32  C   UNL     1      23.177   2.735 -14.986  0.00  0.00    +0.030 A 
BRANCH  32  33
ATOM     33  N   UNL     1      21.945   2.326 -14.556  0.00  0.00    -0.333 N 
ATOM     34  C   UNL     1      21.437   0.996 -14.830  0.00  0.00    +0.086 C 
ATOM     35  C   UNL     1      21.104   3.156 -13.698  0.00  0.00    +0.086 C 
ATOM     36  C   UNL     1      19.991   1.035 -15.267  0.00  0.00    -0.060 C 
ATOM     37  C   UNL     1      19.646   3.069 -14.186  0.00  0.00    -0.060 C 
ATOM     38  N   UNL     1      19.174   1.702 -14.268  0.00  0.00    +0.380 N 
ATOM     39  C   UNL     1      17.759   1.653 -14.617  0.00  0.00    -0.096 C 
ATOM     40  H   UNL     1      19.261   1.235 -13.366  0.00  0.00    -0.082 HD
ENDBRANCH  32  33
ENDBRANCH  26  27
ENDBRANCH  24  26
ENDBRANCH  11  22
TORSDOF 5
ENDMDL
