REMARK SMILES Cn1c(CN2CC3(CC3)C[C@@H]2c2cccc(C(=O)NC3CCC3)n2)nc2ccccc21
REMARK SMILES IDX 5 1 6 2 7 3 8 4 9 5 10 6 11 7 4 8 3 9 2 10 31 11 25 12 30 13
REMARK SMILES IDX 26 14 29 15 27 16 28 17 1 18 12 19 13 20 24 21 14 22 16 23
REMARK SMILES IDX 15 24 17 25 18 26 19 27 20 29 21 30 23 31 22 32
REMARK H PARENT 19 28
ROOT
ATOM      1  N   UNL     1      -1.210  -2.073  -0.323  1.00  0.00    -0.287 NA
ATOM      2  C   UNL     1      -1.693  -3.397  -0.785  1.00  0.00     0.092 C 
ATOM      3  C   UNL     1      -1.346  -4.344   0.341  1.00  0.00    -0.015 C 
ATOM      4  C   UNL     1      -1.259  -5.833   0.086  1.00  0.00     0.009 C 
ATOM      5  C   UNL     1      -2.391  -5.284   0.904  1.00  0.00     0.009 C 
ATOM      6  C   UNL     1      -0.371  -3.667   1.267  1.00  0.00     0.034 C 
ATOM      7  C   UNL     1       0.025  -2.423   0.461  1.00  0.00     0.107 C 
ENDROOT
BRANCH   1   8
ATOM      8  C   UNL     1      -2.279  -1.424   0.471  1.00  0.00     0.160 C 
BRANCH   8   9
ATOM      9  C   UNL     1      -2.005  -0.002   0.861  1.00  0.00     0.123 A 
ATOM     10  N   UNL     1      -1.640   0.996  -0.018  1.00  0.00    -0.330 N 
ATOM     11  C   UNL     1      -1.390   2.138   0.708  1.00  0.00     0.068 A 
ATOM     12  N   UNL     1      -2.091   0.469   2.093  1.00  0.00    -0.232 NA
ATOM     13  C   UNL     1      -0.929   3.414   0.364  1.00  0.00     0.028 A 
ATOM     14  C   UNL     1      -1.692   1.779   2.018  1.00  0.00     0.089 A 
ATOM     15  C   UNL     1      -0.783   4.342   1.403  1.00  0.00     0.002 A 
ATOM     16  C   UNL     1      -1.551   2.725   3.044  1.00  0.00     0.030 A 
ATOM     17  C   UNL     1      -1.092   4.007   2.722  1.00  0.00     0.002 A 
ATOM     18  C   UNL     1      -1.504   0.863  -1.448  1.00  0.00     0.151 C 
ENDBRANCH   8   9
ENDBRANCH   1   8
BRANCH   7  19
ATOM     19  C   UNL     1       0.764  -1.295   1.157  1.00  0.00     0.058 A 
ATOM     20  C   UNL     1       0.810  -1.159   2.545  1.00  0.00     0.025 A 
ATOM     21  N   UNL     1       1.389  -0.406   0.337  1.00  0.00    -0.246 NA
ATOM     22  C   UNL     1       1.484  -0.075   3.110  1.00  0.00     0.004 A 
ATOM     23  C   UNL     1       2.017   0.657   0.919  1.00  0.00     0.128 A 
ATOM     24  C   UNL     1       2.096   0.859   2.285  1.00  0.00     0.034 A 
BRANCH  23  25
ATOM     25  C   UNL     1       2.626   1.645  -0.028  1.00  0.00     0.270 C 
ATOM     26  O   UNL     1       3.217   2.646   0.359  1.00  0.00    -0.268 OA
ATOM     27  N   UNL     1       2.452   1.315  -1.359  1.00  0.00    -0.348 N 
ATOM     28  H   UNL     1       1.958   0.436  -1.506  1.00  0.00     0.164 HD
BRANCH  27  29
ATOM     29  C   UNL     1       2.945   2.137  -2.461  1.00  0.00     0.082 C 
ATOM     30  C   UNL     1       2.038   3.340  -2.821  1.00  0.00     0.025 C 
ATOM     31  C   UNL     1       2.618   1.581  -3.868  1.00  0.00     0.025 C 
ATOM     32  C   UNL     1       2.352   3.037  -4.301  1.00  0.00     0.004 C 
ENDBRANCH  27  29
ENDBRANCH  23  25
ENDBRANCH   7  19
TORSDOF 5
