REMARK SMILES Cn1c(CN2CC3(CC3)C[C@H]2c2cccc(C(=O)NC3CCC3)n2)nc2ccccc21
REMARK SMILES IDX 5 1 6 2 7 3 8 4 9 5 10 6 11 7 4 8 3 9 2 10 31 11 25 12 30 13
REMARK SMILES IDX 26 14 29 15 27 16 28 17 1 18 12 19 13 20 24 21 14 22 16 23
REMARK SMILES IDX 15 24 17 25 18 26 19 27 20 29 21 30 23 31 22 32
REMARK H PARENT 19 28
ROOT
ATOM      1  N   UNL     1      -1.381  -0.514  -0.280  1.00  0.00    -0.287 NA
ATOM      2  C   UNL     1      -0.693  -1.261  -1.351  1.00  0.00     0.092 C 
ATOM      3  C   UNL     1       0.121  -2.307  -0.641  1.00  0.00    -0.015 C 
ATOM      4  C   UNL     1       1.295  -2.962  -1.336  1.00  0.00     0.009 C 
ATOM      5  C   UNL     1       0.052  -3.758  -1.069  1.00  0.00     0.009 C 
ATOM      6  C   UNL     1       0.198  -1.963   0.820  1.00  0.00     0.034 C 
ATOM      7  C   UNL     1      -0.467  -0.579   0.899  1.00  0.00     0.107 C 
ENDROOT
BRANCH   1   8
ATOM      8  C   UNL     1      -2.691  -1.114   0.028  1.00  0.00     0.160 C 
BRANCH   8   9
ATOM      9  C   UNL     1      -3.480  -0.248   0.969  1.00  0.00     0.123 A 
ATOM     10  N   UNL     1      -3.916   1.024   0.664  1.00  0.00    -0.330 N 
ATOM     11  C   UNL     1      -4.545   1.541   1.773  1.00  0.00     0.068 A 
ATOM     12  N   UNL     1      -3.812  -0.573   2.205  1.00  0.00    -0.232 NA
ATOM     13  C   UNL     1      -5.155   2.772   2.047  1.00  0.00     0.028 A 
ATOM     14  C   UNL     1      -4.470   0.518   2.713  1.00  0.00     0.089 A 
ATOM     15  C   UNL     1      -5.705   2.942   3.323  1.00  0.00     0.002 A 
ATOM     16  C   UNL     1      -5.028   0.706   3.986  1.00  0.00     0.030 A 
ATOM     17  C   UNL     1      -5.645   1.927   4.279  1.00  0.00     0.002 A 
ATOM     18  C   UNL     1      -3.707   1.716  -0.585  1.00  0.00     0.151 C 
ENDBRANCH   8   9
ENDBRANCH   1   8
BRANCH   7  19
ATOM     19  C   UNL     1       0.522   0.588   0.878  1.00  0.00     0.058 A 
ATOM     20  C   UNL     1       0.149   1.801   1.465  1.00  0.00     0.025 A 
ATOM     21  N   UNL     1       1.709   0.434   0.237  1.00  0.00    -0.246 NA
ATOM     22  C   UNL     1       1.023   2.884   1.415  1.00  0.00     0.004 A 
ATOM     23  C   UNL     1       2.541   1.514   0.200  1.00  0.00     0.128 A 
ATOM     24  C   UNL     1       2.246   2.743   0.771  1.00  0.00     0.034 A 
BRANCH  23  25
ATOM     25  C   UNL     1       3.840   1.311  -0.517  1.00  0.00     0.270 C 
ATOM     26  O   UNL     1       4.672   2.205  -0.614  1.00  0.00    -0.268 OA
ATOM     27  N   UNL     1       3.995   0.044  -1.046  1.00  0.00    -0.348 N 
ATOM     28  H   UNL     1       3.210  -0.582  -0.876  1.00  0.00     0.164 HD
BRANCH  27  29
ATOM     29  C   UNL     1       5.189  -0.373  -1.781  1.00  0.00     0.082 C 
ATOM     30  C   UNL     1       5.245   0.109  -3.251  1.00  0.00     0.025 C 
ATOM     31  C   UNL     1       5.125  -1.812  -2.345  1.00  0.00     0.025 C 
ATOM     32  C   UNL     1       5.837  -1.271  -3.602  1.00  0.00     0.004 C 
ENDBRANCH  27  29
ENDBRANCH  23  25
ENDBRANCH   7  19
TORSDOF 5
