MODEL 1
REMARK VINA RESULT:    -7.802      0.000      0.000
REMARK INTER + INTRA:         -10.736
REMARK INTER:                 -10.083
REMARK INTRA:                  -0.654
REMARK UNBOUND:                -0.654
REMARK SMILES Cn1c(CN2CC3(CC3)C[C@@H]2c2cccc(C(=O)NC3CCC3)n2)nc2ccccc21
REMARK SMILES IDX 5 1 6 2 7 3 8 4 9 5 10 6 11 7 4 8 3 9 2 10 31 11 25 12 30 13
REMARK SMILES IDX 26 14 29 15 27 16 28 17 1 18 12 19 13 20 24 21 14 22 16 23
REMARK SMILES IDX 15 24 17 25 18 26 19 27 20 29 21 30 23 31 22 32
REMARK H PARENT 19 28
ROOT
ATOM      1  N   UNL     1      29.049  18.548   9.589  1.00  0.00    -0.287 NA
ATOM      2  C   UNL     1      30.458  18.920   9.865  1.00  0.00     0.092 C 
ATOM      3  C   UNL     1      30.645  18.641  11.339  1.00  0.00    -0.015 C 
ATOM      4  C   UNL     1      31.775  19.297  12.101  1.00  0.00     0.009 C 
ATOM      5  C   UNL     1      31.823  17.823  11.822  1.00  0.00     0.009 C 
ATOM      6  C   UNL     1      29.294  18.459  11.977  1.00  0.00     0.034 C 
ATOM      7  C   UNL     1      28.347  18.927  10.864  1.00  0.00     0.107 C 
ENDROOT
BRANCH   1   8
ATOM      8  C   UNL     1      28.991  17.104   9.261  1.00  0.00     0.160 C 
BRANCH   8   9
ATOM      9  C   UNL     1      28.453  16.784   7.898  1.00  0.00     0.123 A 
ATOM     10  N   UNL     1      29.165  16.911   6.724  1.00  0.00    -0.330 N 
ATOM     11  C   UNL     1      28.324  16.612   5.677  1.00  0.00     0.068 A 
ATOM     12  N   UNL     1      27.234  16.331   7.659  1.00  0.00    -0.232 NA
ATOM     13  C   UNL     1      28.475  16.639   4.286  1.00  0.00     0.028 A 
ATOM     14  C   UNL     1      27.133  16.244   6.294  1.00  0.00     0.089 A 
ATOM     15  C   UNL     1      27.365  16.269   3.516  1.00  0.00     0.002 A 
ATOM     16  C   UNL     1      26.035  15.865   5.507  1.00  0.00     0.030 A 
ATOM     17  C   UNL     1      26.164  15.884   4.114  1.00  0.00     0.002 A 
ATOM     18  C   UNL     1      30.543  17.322   6.605  1.00  0.00     0.151 C 
ENDBRANCH   8   9
ENDBRANCH   1   8
BRANCH   7  19
ATOM     19  C   UNL     1      26.866  18.619  10.975  1.00  0.00     0.058 A 
ATOM     20  C   UNL     1      26.355  17.321  10.951  1.00  0.00     0.025 A 
ATOM     21  N   UNL     1      26.047  19.700  11.098  1.00  0.00    -0.246 NA
ATOM     22  C   UNL     1      24.976  17.120  11.026  1.00  0.00     0.004 A 
ATOM     23  C   UNL     1      24.702  19.472  11.142  1.00  0.00     0.128 A 
ATOM     24  C   UNL     1      24.127  18.215  11.116  1.00  0.00     0.034 A 
BRANCH  23  25
ATOM     25  C   UNL     1      23.841  20.696  11.204  1.00  0.00     0.270 C 
ATOM     26  O   UNL     1      22.634  20.661  10.995  1.00  0.00    -0.268 OA
ATOM     27  N   UNL     1      24.539  21.848  11.514  1.00  0.00    -0.348 N 
ATOM     28  H   UNL     1      25.533  21.697  11.681  1.00  0.00     0.164 HD
BRANCH  27  29
ATOM     29  C   UNL     1      23.914  23.164  11.613  1.00  0.00     0.082 C 
ATOM     30  C   UNL     1      23.378  23.724  10.272  1.00  0.00     0.025 C 
ATOM     31  C   UNL     1      24.911  24.348  11.609  1.00  0.00     0.025 C 
ATOM     32  C   UNL     1      23.896  25.104  10.728  1.00  0.00     0.004 C 
ENDBRANCH  27  29
ENDBRANCH  23  25
ENDBRANCH   7  19
TORSDOF 5
ENDMDL
MODEL 2
REMARK VINA RESULT:    -7.669      5.149      8.464
REMARK INTER + INTRA:         -10.565
REMARK INTER:                  -9.653
REMARK INTRA:                  -0.911
REMARK UNBOUND:                -0.654
REMARK SMILES Cn1c(CN2CC3(CC3)C[C@@H]2c2cccc(C(=O)NC3CCC3)n2)nc2ccccc21
REMARK SMILES IDX 5 1 6 2 7 3 8 4 9 5 10 6 11 7 4 8 3 9 2 10 31 11 25 12 30 13
REMARK SMILES IDX 26 14 29 15 27 16 28 17 1 18 12 19 13 20 24 21 14 22 16 23
REMARK SMILES IDX 15 24 17 25 18 26 19 27 20 29 21 30 23 31 22 32
REMARK H PARENT 19 28
ROOT
ATOM      1  N   UNL     1      29.367  14.512   1.823  1.00  0.00    -0.287 NA
ATOM      2  C   UNL     1      30.712  14.401   1.207  1.00  0.00     0.092 C 
ATOM      3  C   UNL     1      31.665  14.342   2.378  1.00  0.00    -0.015 C 
ATOM      4  C   UNL     1      33.129  14.677   2.188  1.00  0.00     0.009 C 
ATOM      5  C   UNL     1      32.720  13.258   2.457  1.00  0.00     0.009 C 
ATOM      6  C   UNL     1      30.937  14.771   3.624  1.00  0.00     0.034 C 
ATOM      7  C   UNL     1      29.631  15.338   3.052  1.00  0.00     0.107 C 
ENDROOT
BRANCH   1   8
ATOM      8  C   UNL     1      28.852  13.150   2.097  1.00  0.00     0.160 C 
BRANCH   8   9
ATOM      9  C   UNL     1      28.603  12.310   0.879  1.00  0.00     0.123 A 
ATOM     10  N   UNL     1      29.277  11.145   0.579  1.00  0.00    -0.330 N 
ATOM     11  C   UNL     1      28.844  10.702  -0.649  1.00  0.00     0.068 A 
ATOM     12  N   UNL     1      27.701  12.580  -0.048  1.00  0.00    -0.232 NA
ATOM     13  C   UNL     1      29.217   9.632  -1.472  1.00  0.00     0.028 A 
ATOM     14  C   UNL     1      27.854  11.611  -1.007  1.00  0.00     0.089 A 
ATOM     15  C   UNL     1      28.542   9.500  -2.692  1.00  0.00     0.002 A 
ATOM     16  C   UNL     1      27.181  11.456  -2.228  1.00  0.00     0.030 A 
ATOM     17  C   UNL     1      27.537  10.393  -3.065  1.00  0.00     0.002 A 
ATOM     18  C   UNL     1      30.290  10.514   1.391  1.00  0.00     0.151 C 
ENDBRANCH   8   9
ENDBRANCH   1   8
BRANCH   7  19
ATOM     19  C   UNL     1      28.467  15.603   3.989  1.00  0.00     0.058 A 
ATOM     20  C   UNL     1      27.139  15.635   3.561  1.00  0.00     0.025 A 
ATOM     21  N   UNL     1      28.796  15.813   5.293  1.00  0.00    -0.246 NA
ATOM     22  C   UNL     1      26.125  15.918   4.478  1.00  0.00     0.004 A 
ATOM     23  C   UNL     1      27.785  16.113   6.160  1.00  0.00     0.128 A 
ATOM     24  C   UNL     1      26.450  16.169   5.805  1.00  0.00     0.034 A 
BRANCH  23  25
ATOM     25  C   UNL     1      28.206  16.408   7.567  1.00  0.00     0.270 C 
ATOM     26  O   UNL     1      27.794  15.764   8.524  1.00  0.00    -0.268 OA
ATOM     27  N   UNL     1      29.092  17.465   7.669  1.00  0.00    -0.348 N 
ATOM     28  H   UNL     1      29.351  17.875   6.773  1.00  0.00     0.164 HD
BRANCH  27  29
ATOM     29  C   UNL     1      29.627  17.944   8.941  1.00  0.00     0.082 C 
ATOM     30  C   UNL     1      28.696  18.920   9.702  1.00  0.00     0.025 C 
ATOM     31  C   UNL     1      30.617  19.127   8.812  1.00  0.00     0.025 C 
ATOM     32  C   UNL     1      29.963  19.716  10.078  1.00  0.00     0.004 C 
ENDBRANCH  27  29
ENDBRANCH  23  25
ENDBRANCH   7  19
TORSDOF 5
ENDMDL
MODEL 3
REMARK VINA RESULT:    -7.531      5.464     11.262
REMARK INTER + INTRA:         -10.387
REMARK INTER:                  -9.362
REMARK INTRA:                  -1.024
REMARK UNBOUND:                -0.654
REMARK SMILES Cn1c(CN2CC3(CC3)C[C@@H]2c2cccc(C(=O)NC3CCC3)n2)nc2ccccc21
REMARK SMILES IDX 5 1 6 2 7 3 8 4 9 5 10 6 11 7 4 8 3 9 2 10 31 11 25 12 30 13
REMARK SMILES IDX 26 14 29 15 27 16 28 17 1 18 12 19 13 20 24 21 14 22 16 23
REMARK SMILES IDX 15 24 17 25 18 26 19 27 20 29 21 30 23 31 22 32
REMARK H PARENT 19 28
ROOT
ATOM      1  N   UNL     1      29.348  16.301   3.760  1.00  0.00    -0.287 NA
ATOM      2  C   UNL     1      28.091  17.004   4.115  1.00  0.00     0.092 C 
ATOM      3  C   UNL     1      27.015  15.951   3.982  1.00  0.00    -0.015 C 
ATOM      4  C   UNL     1      25.566  16.357   3.817  1.00  0.00     0.009 C 
ATOM      5  C   UNL     1      26.019  15.724   5.100  1.00  0.00     0.009 C 
ATOM      6  C   UNL     1      27.571  14.774   3.225  1.00  0.00     0.034 C 
ATOM      7  C   UNL     1      28.901  15.332   2.700  1.00  0.00     0.107 C 
ENDROOT
BRANCH   1   8
ATOM      8  C   UNL     1      29.902  15.667   4.979  1.00  0.00     0.160 C 
BRANCH   8   9
ATOM      9  C   UNL     1      29.937  16.548   6.192  1.00  0.00     0.123 A 
ATOM     10  N   UNL     1      29.243  16.304   7.359  1.00  0.00    -0.330 N 
ATOM     11  C   UNL     1      29.449  17.365   8.211  1.00  0.00     0.068 A 
ATOM     12  N   UNL     1      30.646  17.659   6.294  1.00  0.00    -0.232 NA
ATOM     13  C   UNL     1      28.951  17.690   9.478  1.00  0.00     0.028 A 
ATOM     14  C   UNL     1      30.337  18.185   7.522  1.00  0.00     0.089 A 
ATOM     15  C   UNL     1      29.389  18.893  10.047  1.00  0.00     0.002 A 
ATOM     16  C   UNL     1      30.774  19.380   8.112  1.00  0.00     0.030 A 
ATOM     17  C   UNL     1      30.289  19.724   9.379  1.00  0.00     0.002 A 
ATOM     18  C   UNL     1      28.413  15.156   7.631  1.00  0.00     0.151 C 
ENDBRANCH   8   9
ENDBRANCH   1   8
BRANCH   7  19
ATOM     19  C   UNL     1      29.934  14.373   2.138  1.00  0.00     0.058 A 
ATOM     20  C   UNL     1      29.773  12.987   2.153  1.00  0.00     0.025 A 
ATOM     21  N   UNL     1      31.048  14.951   1.609  1.00  0.00    -0.246 NA
ATOM     22  C   UNL     1      30.784  12.169   1.645  1.00  0.00     0.004 A 
ATOM     23  C   UNL     1      32.029  14.124   1.144  1.00  0.00     0.128 A 
ATOM     24  C   UNL     1      31.941  12.743   1.135  1.00  0.00     0.034 A 
BRANCH  23  25
ATOM     25  C   UNL     1      33.264  14.806   0.641  1.00  0.00     0.270 C 
ATOM     26  O   UNL     1      34.146  15.203   1.392  1.00  0.00    -0.268 OA
ATOM     27  N   UNL     1      33.300  14.938  -0.735  1.00  0.00    -0.348 N 
ATOM     28  H   UNL     1      32.497  14.531  -1.211  1.00  0.00     0.164 HD
BRANCH  27  29
ATOM     29  C   UNL     1      34.397  15.585  -1.450  1.00  0.00     0.082 C 
ATOM     30  C   UNL     1      34.269  15.547  -2.993  1.00  0.00     0.025 C 
ATOM     31  C   UNL     1      35.657  14.701  -1.620  1.00  0.00     0.025 C 
ATOM     32  C   UNL     1      35.790  15.293  -3.038  1.00  0.00     0.004 C 
ENDBRANCH  27  29
ENDBRANCH  23  25
ENDBRANCH   7  19
TORSDOF 5
ENDMDL
MODEL 4
REMARK VINA RESULT:    -7.529      6.757     12.274
REMARK INTER + INTRA:         -10.384
REMARK INTER:                  -9.319
REMARK INTRA:                  -1.065
REMARK UNBOUND:                -0.654
REMARK SMILES Cn1c(CN2CC3(CC3)C[C@@H]2c2cccc(C(=O)NC3CCC3)n2)nc2ccccc21
REMARK SMILES IDX 5 1 6 2 7 3 8 4 9 5 10 6 11 7 4 8 3 9 2 10 31 11 25 12 30 13
REMARK SMILES IDX 26 14 29 15 27 16 28 17 1 18 12 19 13 20 24 21 14 22 16 23
REMARK SMILES IDX 15 24 17 25 18 26 19 27 20 29 21 30 23 31 22 32
REMARK H PARENT 19 28
ROOT
ATOM      1  N   UNL     1      31.580  13.716   2.416  1.00  0.00    -0.287 NA
ATOM      2  C   UNL     1      32.999  14.115   2.256  1.00  0.00     0.092 C 
ATOM      3  C   UNL     1      33.375  13.640   0.871  1.00  0.00    -0.015 C 
ATOM      4  C   UNL     1      34.830  13.449   0.499  1.00  0.00     0.009 C 
ATOM      5  C   UNL     1      34.050  14.579  -0.106  1.00  0.00     0.009 C 
ATOM      6  C   UNL     1      32.326  12.677   0.382  1.00  0.00     0.034 C 
ATOM      7  C   UNL     1      31.509  12.420   1.655  1.00  0.00     0.107 C 
ENDROOT
BRANCH   1   8
ATOM      8  C   UNL     1      30.716  14.793   1.878  1.00  0.00     0.160 C 
BRANCH   8   9
ATOM      9  C   UNL     1      29.559  15.174   2.752  1.00  0.00     0.123 A 
ATOM     10  N   UNL     1      29.674  15.693   4.024  1.00  0.00    -0.330 N 
ATOM     11  C   UNL     1      28.409  15.837   4.547  1.00  0.00     0.068 A 
ATOM     12  N   UNL     1      28.288  15.068   2.405  1.00  0.00    -0.232 NA
ATOM     13  C   UNL     1      27.926  16.243   5.796  1.00  0.00     0.028 A 
ATOM     14  C   UNL     1      27.568  15.449   3.508  1.00  0.00     0.089 A 
ATOM     15  C   UNL     1      26.536  16.253   5.970  1.00  0.00     0.002 A 
ATOM     16  C   UNL     1      26.179  15.477   3.697  1.00  0.00     0.030 A 
ATOM     17  C   UNL     1      25.674  15.881   4.938  1.00  0.00     0.002 A 
ATOM     18  C   UNL     1      30.906  16.000   4.710  1.00  0.00     0.151 C 
ENDBRANCH   8   9
ENDBRANCH   1   8
BRANCH   7  19
ATOM     19  C   UNL     1      30.158  11.739   1.542  1.00  0.00     0.058 A 
ATOM     20  C   UNL     1      29.627  10.932   2.548  1.00  0.00     0.025 A 
ATOM     21  N   UNL     1      29.482  11.962   0.381  1.00  0.00    -0.246 NA
ATOM     22  C   UNL     1      28.390  10.314   2.356  1.00  0.00     0.004 A 
ATOM     23  C   UNL     1      28.288  11.322   0.213  1.00  0.00     0.128 A 
ATOM     24  C   UNL     1      27.706  10.503   1.163  1.00  0.00     0.034 A 
BRANCH  23  25
ATOM     25  C   UNL     1      27.619  11.541  -1.109  1.00  0.00     0.270 C 
ATOM     26  O   UNL     1      27.034  12.582  -1.384  1.00  0.00    -0.268 OA
ATOM     27  N   UNL     1      27.726  10.464  -1.969  1.00  0.00    -0.348 N 
ATOM     28  H   UNL     1      28.266   9.686  -1.592  1.00  0.00     0.164 HD
BRANCH  27  29
ATOM     29  C   UNL     1      27.139  10.441  -3.306  1.00  0.00     0.082 C 
ATOM     30  C   UNL     1      27.193   9.062  -4.009  1.00  0.00     0.025 C 
ATOM     31  C   UNL     1      28.078  10.952  -4.425  1.00  0.00     0.025 C 
ATOM     32  C   UNL     1      27.514   9.824  -5.312  1.00  0.00     0.004 C 
ENDBRANCH  27  29
ENDBRANCH  23  25
ENDBRANCH   7  19
TORSDOF 5
ENDMDL
MODEL 5
REMARK VINA RESULT:    -7.284      4.392      7.676
REMARK INTER + INTRA:         -10.066
REMARK INTER:                  -8.021
REMARK INTRA:                  -2.045
REMARK UNBOUND:                -0.654
REMARK SMILES Cn1c(CN2CC3(CC3)C[C@@H]2c2cccc(C(=O)NC3CCC3)n2)nc2ccccc21
REMARK SMILES IDX 5 1 6 2 7 3 8 4 9 5 10 6 11 7 4 8 3 9 2 10 31 11 25 12 30 13
REMARK SMILES IDX 26 14 29 15 27 16 28 17 1 18 12 19 13 20 24 21 14 22 16 23
REMARK SMILES IDX 15 24 17 25 18 26 19 27 20 29 21 30 23 31 22 32
REMARK H PARENT 19 28
ROOT
ATOM      1  N   UNL     1      25.200  21.405  11.954  1.00  0.00    -0.287 NA
ATOM      2  C   UNL     1      26.616  21.847  11.933  1.00  0.00     0.092 C 
ATOM      3  C   UNL     1      27.329  20.802  11.106  1.00  0.00    -0.015 C 
ATOM      4  C   UNL     1      28.829  20.635  11.217  1.00  0.00     0.009 C 
ATOM      5  C   UNL     1      28.236  21.213   9.965  1.00  0.00     0.009 C 
ATOM      6  C   UNL     1      26.433  19.601  10.956  1.00  0.00     0.034 C 
ATOM      7  C   UNL     1      25.318  19.906  11.964  1.00  0.00     0.107 C 
ENDROOT
BRANCH   1   8
ATOM      8  C   UNL     1      24.508  21.960  10.768  1.00  0.00     0.160 C 
BRANCH   8   9
ATOM      9  C   UNL     1      23.287  22.776  11.069  1.00  0.00     0.123 A 
ATOM     10  N   UNL     1      23.298  23.997  11.712  1.00  0.00    -0.330 N 
ATOM     11  C   UNL     1      21.995  24.401  11.889  1.00  0.00     0.068 A 
ATOM     12  N   UNL     1      22.053  22.430  10.746  1.00  0.00    -0.232 NA
ATOM     13  C   UNL     1      21.407  25.500  12.527  1.00  0.00     0.028 A 
ATOM     14  C   UNL     1      21.245  23.409  11.266  1.00  0.00     0.089 A 
ATOM     15  C   UNL     1      20.009  25.574  12.513  1.00  0.00     0.002 A 
ATOM     16  C   UNL     1      19.845  23.506  11.252  1.00  0.00     0.030 A 
ATOM     17  C   UNL     1      19.238  24.597  11.883  1.00  0.00     0.002 A 
ATOM     18  C   UNL     1      24.468  24.713  12.158  1.00  0.00     0.151 C 
ENDBRANCH   8   9
ENDBRANCH   1   8
BRANCH   7  19
ATOM     19  C   UNL     1      24.036  19.096  11.916  1.00  0.00     0.058 A 
ATOM     20  C   UNL     1      23.796  18.108  10.959  1.00  0.00     0.025 A 
ATOM     21  N   UNL     1      23.115  19.392  12.873  1.00  0.00    -0.246 NA
ATOM     22  C   UNL     1      22.577  17.428  10.960  1.00  0.00     0.004 A 
ATOM     23  C   UNL     1      21.923  18.728  12.832  1.00  0.00     0.128 A 
ATOM     24  C   UNL     1      21.615  17.744  11.909  1.00  0.00     0.034 A 
BRANCH  23  25
ATOM     25  C   UNL     1      20.917  19.142  13.861  1.00  0.00     0.270 C 
ATOM     26  O   UNL     1      20.472  18.361  14.695  1.00  0.00    -0.268 OA
ATOM     27  N   UNL     1      20.548  20.471  13.771  1.00  0.00    -0.348 N 
ATOM     28  H   UNL     1      21.031  20.985  13.036  1.00  0.00     0.164 HD
BRANCH  27  29
ATOM     29  C   UNL     1      19.570  21.094  14.658  1.00  0.00     0.082 C 
ATOM     30  C   UNL     1      18.254  21.524  13.962  1.00  0.00     0.025 C 
ATOM     31  C   UNL     1      19.818  22.598  14.926  1.00  0.00     0.025 C 
ATOM     32  C   UNL     1      18.290  22.790  14.845  1.00  0.00     0.004 C 
ENDBRANCH  27  29
ENDBRANCH  23  25
ENDBRANCH   7  19
TORSDOF 5
ENDMDL
