MODEL 1
REMARK VINA RESULT:    -7.497      0.000      0.000
REMARK INTER + INTRA:         -10.982
REMARK INTER:                  -9.688
REMARK INTRA:                  -1.294
REMARK UNBOUND:                -1.294
REMARK SMILES Cn1c(CN2CC3(CC3)C[C@H]2c2cccc(C(=O)NC3CCC3)n2)nc2ccccc21
REMARK SMILES IDX 5 1 6 2 7 3 8 4 9 5 10 6 11 7 4 8 3 9 2 10 31 11 25 12 30 13
REMARK SMILES IDX 26 14 29 15 27 16 28 17 1 18 12 19 13 20 24 21 14 22 16 23
REMARK SMILES IDX 15 24 17 25 18 26 19 27 20 29 21 30 23 31 22 32
REMARK H PARENT 19 28
ROOT
ATOM      1  N   UNL     1      30.236  13.690   2.112  1.00  0.00    -0.287 NA
ATOM      2  C   UNL     1      29.489  12.417   2.131  1.00  0.00     0.092 C 
ATOM      3  C   UNL     1      28.349  12.616   1.171  1.00  0.00    -0.015 C 
ATOM      4  C   UNL     1      27.122  11.733   1.251  1.00  0.00     0.009 C 
ATOM      5  C   UNL     1      28.064  11.592   0.092  1.00  0.00     0.009 C 
ATOM      6  C   UNL     1      28.213  14.081   0.865  1.00  0.00     0.034 C 
ATOM      7  C   UNL     1      29.219  14.743   1.821  1.00  0.00     0.107 C 
ENDROOT
BRANCH   1   8
ATOM      8  C   UNL     1      31.292  13.670   1.084  1.00  0.00     0.160 C 
BRANCH   8   9
ATOM      9  C   UNL     1      32.568  14.272   1.601  1.00  0.00     0.123 A 
ATOM     10  N   UNL     1      33.517  14.872   0.800  1.00  0.00    -0.330 N 
ATOM     11  C   UNL     1      34.574  15.250   1.595  1.00  0.00     0.068 A 
ATOM     12  N   UNL     1      32.957  14.264   2.863  1.00  0.00    -0.232 NA
ATOM     13  C   UNL     1      35.802  15.872   1.333  1.00  0.00     0.028 A 
ATOM     14  C   UNL     1      34.191  14.864   2.876  1.00  0.00     0.089 A 
ATOM     15  C   UNL     1      36.646  16.104   2.424  1.00  0.00     0.002 A 
ATOM     16  C   UNL     1      35.049  15.106   3.958  1.00  0.00     0.030 A 
ATOM     17  C   UNL     1      36.279  15.729   3.718  1.00  0.00     0.002 A 
ATOM     18  C   UNL     1      33.440  15.032  -0.632  1.00  0.00     0.151 C 
ENDBRANCH   8   9
ENDBRANCH   1   8
BRANCH   7  19
ATOM     19  C   UNL     1      28.594  15.262   3.118  1.00  0.00     0.058 A 
ATOM     20  C   UNL     1      27.203  15.381   3.198  1.00  0.00     0.025 A 
ATOM     21  N   UNL     1      29.409  15.649   4.132  1.00  0.00    -0.246 NA
ATOM     22  C   UNL     1      26.625  15.892   4.357  1.00  0.00     0.004 A 
ATOM     23  C   UNL     1      28.814  16.151   5.252  1.00  0.00     0.128 A 
ATOM     24  C   UNL     1      27.443  16.286   5.409  1.00  0.00     0.034 A 
BRANCH  23  25
ATOM     25  C   UNL     1      29.741  16.571   6.350  1.00  0.00     0.270 C 
ATOM     26  O   UNL     1      30.931  16.279   6.339  1.00  0.00    -0.268 OA
ATOM     27  N   UNL     1      29.129  17.302   7.350  1.00  0.00    -0.348 N 
ATOM     28  H   UNL     1      28.134  17.459   7.207  1.00  0.00     0.164 HD
BRANCH  27  29
ATOM     29  C   UNL     1      29.848  17.818   8.515  1.00  0.00     0.082 C 
ATOM     30  C   UNL     1      28.948  18.456   9.600  1.00  0.00     0.025 C 
ATOM     31  C   UNL     1      30.462  19.224   8.319  1.00  0.00     0.025 C 
ATOM     32  C   UNL     1      30.043  19.528   9.772  1.00  0.00     0.004 C 
ENDBRANCH  27  29
ENDBRANCH  23  25
ENDBRANCH   7  19
TORSDOF 5
ENDMDL
MODEL 2
REMARK VINA RESULT:    -7.436      3.505      8.813
REMARK INTER + INTRA:         -10.903
REMARK INTER:                  -9.685
REMARK INTRA:                  -1.218
REMARK UNBOUND:                -1.294
REMARK SMILES Cn1c(CN2CC3(CC3)C[C@H]2c2cccc(C(=O)NC3CCC3)n2)nc2ccccc21
REMARK SMILES IDX 5 1 6 2 7 3 8 4 9 5 10 6 11 7 4 8 3 9 2 10 31 11 25 12 30 13
REMARK SMILES IDX 26 14 29 15 27 16 28 17 1 18 12 19 13 20 24 21 14 22 16 23
REMARK SMILES IDX 15 24 17 25 18 26 19 27 20 29 21 30 23 31 22 32
REMARK H PARENT 19 28
ROOT
ATOM      1  N   UNL     1      29.234  15.804   8.334  1.00  0.00    -0.287 NA
ATOM      2  C   UNL     1      29.805  14.446   8.254  1.00  0.00     0.092 C 
ATOM      3  C   UNL     1      31.038  14.586   7.405  1.00  0.00    -0.015 C 
ATOM      4  C   UNL     1      31.637  13.374   6.723  1.00  0.00     0.009 C 
ATOM      5  C   UNL     1      32.362  14.015   7.869  1.00  0.00     0.009 C 
ATOM      6  C   UNL     1      31.004  15.914   6.703  1.00  0.00     0.034 C 
ATOM      7  C   UNL     1      29.613  16.469   7.051  1.00  0.00     0.107 C 
ENDROOT
BRANCH   1   8
ATOM      8  C   UNL     1      29.771  16.538   9.493  1.00  0.00     0.160 C 
BRANCH   8   9
ATOM      9  C   UNL     1      28.914  17.726   9.830  1.00  0.00     0.123 A 
ATOM     10  N   UNL     1      29.269  19.032   9.567  1.00  0.00    -0.330 N 
ATOM     11  C   UNL     1      28.285  19.854  10.065  1.00  0.00     0.068 A 
ATOM     12  N   UNL     1      27.751  17.673  10.453  1.00  0.00    -0.232 NA
ATOM     13  C   UNL     1      28.120  21.245  10.103  1.00  0.00     0.028 A 
ATOM     14  C   UNL     1      27.350  18.976  10.604  1.00  0.00     0.089 A 
ATOM     15  C   UNL     1      26.957  21.734  10.708  1.00  0.00     0.002 A 
ATOM     16  C   UNL     1      26.189  19.484  11.205  1.00  0.00     0.030 A 
ATOM     17  C   UNL     1      26.004  20.871  11.250  1.00  0.00     0.002 A 
ATOM     18  C   UNL     1      30.486  19.468   8.925  1.00  0.00     0.151 C 
ENDBRANCH   8   9
ENDBRANCH   1   8
BRANCH   7  19
ATOM     19  C   UNL     1      28.554  16.210   5.978  1.00  0.00     0.058 A 
ATOM     20  C   UNL     1      27.204  16.361   6.310  1.00  0.00     0.025 A 
ATOM     21  N   UNL     1      28.950  15.783   4.752  1.00  0.00    -0.246 NA
ATOM     22  C   UNL     1      26.229  16.087   5.355  1.00  0.00     0.004 A 
ATOM     23  C   UNL     1      27.971  15.518   3.839  1.00  0.00     0.128 A 
ATOM     24  C   UNL     1      26.614  15.657   4.091  1.00  0.00     0.034 A 
BRANCH  23  25
ATOM     25  C   UNL     1      28.442  15.046   2.498  1.00  0.00     0.270 C 
ATOM     26  O   UNL     1      29.377  15.581   1.915  1.00  0.00    -0.268 OA
ATOM     27  N   UNL     1      27.727  13.974   2.000  1.00  0.00    -0.348 N 
ATOM     28  H   UNL     1      26.980  13.646   2.610  1.00  0.00     0.164 HD
BRANCH  27  29
ATOM     29  C   UNL     1      28.019  13.350   0.710  1.00  0.00     0.082 C 
ATOM     30  C   UNL     1      26.979  12.301   0.247  1.00  0.00     0.025 C 
ATOM     31  C   UNL     1      29.036  12.186   0.776  1.00  0.00     0.025 C 
ATOM     32  C   UNL     1      28.165  11.464  -0.273  1.00  0.00     0.004 C 
ENDBRANCH  27  29
ENDBRANCH  23  25
ENDBRANCH   7  19
TORSDOF 5
ENDMDL
MODEL 3
REMARK VINA RESULT:    -7.153      1.417      1.729
REMARK INTER + INTRA:         -10.537
REMARK INTER:                  -8.815
REMARK INTRA:                  -1.722
REMARK UNBOUND:                -1.294
REMARK SMILES Cn1c(CN2CC3(CC3)C[C@H]2c2cccc(C(=O)NC3CCC3)n2)nc2ccccc21
REMARK SMILES IDX 5 1 6 2 7 3 8 4 9 5 10 6 11 7 4 8 3 9 2 10 31 11 25 12 30 13
REMARK SMILES IDX 26 14 29 15 27 16 28 17 1 18 12 19 13 20 24 21 14 22 16 23
REMARK SMILES IDX 15 24 17 25 18 26 19 27 20 29 21 30 23 31 22 32
REMARK H PARENT 19 28
ROOT
ATOM      1  N   UNL     1      30.116  13.737   2.132  1.00  0.00    -0.287 NA
ATOM      2  C   UNL     1      29.422  12.435   2.153  1.00  0.00     0.092 C 
ATOM      3  C   UNL     1      28.288  12.579   1.175  1.00  0.00    -0.015 C 
ATOM      4  C   UNL     1      27.097  11.647   1.246  1.00  0.00     0.009 C 
ATOM      5  C   UNL     1      28.060  11.535   0.102  1.00  0.00     0.009 C 
ATOM      6  C   UNL     1      28.096  14.034   0.854  1.00  0.00     0.034 C 
ATOM      7  C   UNL     1      29.061  14.745   1.818  1.00  0.00     0.107 C 
ENDROOT
BRANCH   1   8
ATOM      8  C   UNL     1      31.186  13.752   1.119  1.00  0.00     0.160 C 
BRANCH   8   9
ATOM      9  C   UNL     1      32.465  14.303   1.683  1.00  0.00     0.123 A 
ATOM     10  N   UNL     1      33.473  14.849   0.917  1.00  0.00    -0.330 N 
ATOM     11  C   UNL     1      34.512  15.190   1.753  1.00  0.00     0.068 A 
ATOM     12  N   UNL     1      32.799  14.295   2.961  1.00  0.00    -0.232 NA
ATOM     13  C   UNL     1      35.776  15.753   1.536  1.00  0.00     0.028 A 
ATOM     14  C   UNL     1      34.056  14.839   3.020  1.00  0.00     0.089 A 
ATOM     15  C   UNL     1      36.583  15.962   2.661  1.00  0.00     0.002 A 
ATOM     16  C   UNL     1      34.878  15.057   4.135  1.00  0.00     0.030 A 
ATOM     17  C   UNL     1      36.144  15.622   3.941  1.00  0.00     0.002 A 
ATOM     18  C   UNL     1      33.465  14.993  -0.518  1.00  0.00     0.151 C 
ENDBRANCH   8   9
ENDBRANCH   1   8
BRANCH   7  19
ATOM     19  C   UNL     1      28.398  15.248   3.102  1.00  0.00     0.058 A 
ATOM     20  C   UNL     1      27.004  15.346   3.149  1.00  0.00     0.025 A 
ATOM     21  N   UNL     1      29.183  15.644   4.137  1.00  0.00    -0.246 NA
ATOM     22  C   UNL     1      26.391  15.843   4.297  1.00  0.00     0.004 A 
ATOM     23  C   UNL     1      28.553  16.131   5.244  1.00  0.00     0.128 A 
ATOM     24  C   UNL     1      27.177  16.245   5.370  1.00  0.00     0.034 A 
BRANCH  23  25
ATOM     25  C   UNL     1      29.448  16.561   6.365  1.00  0.00     0.270 C 
ATOM     26  O   UNL     1      29.061  17.316   7.249  1.00  0.00    -0.268 OA
ATOM     27  N   UNL     1      30.723  16.033   6.298  1.00  0.00    -0.348 N 
ATOM     28  H   UNL     1      30.884  15.422   5.499  1.00  0.00     0.164 HD
BRANCH  27  29
ATOM     29  C   UNL     1      31.758  16.317   7.292  1.00  0.00     0.082 C 
ATOM     30  C   UNL     1      32.755  17.430   6.888  1.00  0.00     0.025 C 
ATOM     31  C   UNL     1      32.961  15.346   7.260  1.00  0.00     0.025 C 
ATOM     32  C   UNL     1      33.860  16.569   7.533  1.00  0.00     0.004 C 
ENDBRANCH  27  29
ENDBRANCH  23  25
ENDBRANCH   7  19
TORSDOF 5
ENDMDL
MODEL 4
REMARK VINA RESULT:    -6.891      5.008      9.084
REMARK INTER + INTRA:         -10.199
REMARK INTER:                  -9.239
REMARK INTRA:                  -0.960
REMARK UNBOUND:                -1.294
REMARK SMILES Cn1c(CN2CC3(CC3)C[C@H]2c2cccc(C(=O)NC3CCC3)n2)nc2ccccc21
REMARK SMILES IDX 5 1 6 2 7 3 8 4 9 5 10 6 11 7 4 8 3 9 2 10 31 11 25 12 30 13
REMARK SMILES IDX 26 14 29 15 27 16 28 17 1 18 12 19 13 20 24 21 14 22 16 23
REMARK SMILES IDX 15 24 17 25 18 26 19 27 20 29 21 30 23 31 22 32
REMARK H PARENT 19 28
ROOT
ATOM      1  N   UNL     1      28.971  16.620  10.275  1.00  0.00    -0.287 NA
ATOM      2  C   UNL     1      29.265  16.371  11.699  1.00  0.00     0.092 C 
ATOM      3  C   UNL     1      27.924  16.156  12.346  1.00  0.00    -0.015 C 
ATOM      4  C   UNL     1      27.763  16.324  13.841  1.00  0.00     0.009 C 
ATOM      5  C   UNL     1      27.682  14.954  13.235  1.00  0.00     0.009 C 
ATOM      6  C   UNL     1      26.846  16.620  11.408  1.00  0.00     0.034 C 
ATOM      7  C   UNL     1      27.627  17.270  10.255  1.00  0.00     0.107 C 
ENDROOT
BRANCH   1   8
ATOM      8  C   UNL     1      28.966  15.363   9.506  1.00  0.00     0.160 C 
BRANCH   8   9
ATOM      9  C   UNL     1      28.451  15.578   8.111  1.00  0.00     0.123 A 
ATOM     10  N   UNL     1      29.231  16.012   7.060  1.00  0.00    -0.330 N 
ATOM     11  C   UNL     1      28.423  16.158   5.956  1.00  0.00     0.068 A 
ATOM     12  N   UNL     1      27.196  15.425   7.731  1.00  0.00    -0.232 NA
ATOM     13  C   UNL     1      28.658  16.578   4.641  1.00  0.00     0.028 A 
ATOM     14  C   UNL     1      27.163  15.776   6.405  1.00  0.00     0.089 A 
ATOM     15  C   UNL     1      27.561  16.597   3.771  1.00  0.00     0.002 A 
ATOM     16  C   UNL     1      26.076  15.800   5.519  1.00  0.00     0.030 A 
ATOM     17  C   UNL     1      26.290  16.214   4.200  1.00  0.00     0.002 A 
ATOM     18  C   UNL     1      30.642  16.311   7.117  1.00  0.00     0.151 C 
ENDBRANCH   8   9
ENDBRANCH   1   8
BRANCH   7  19
ATOM     19  C   UNL     1      27.762  18.789  10.374  1.00  0.00     0.058 A 
ATOM     20  C   UNL     1      28.932  19.402   9.915  1.00  0.00     0.025 A 
ATOM     21  N   UNL     1      26.770  19.494  10.977  1.00  0.00    -0.246 NA
ATOM     22  C   UNL     1      29.086  20.779  10.057  1.00  0.00     0.004 A 
ATOM     23  C   UNL     1      26.952  20.839  11.106  1.00  0.00     0.128 A 
ATOM     24  C   UNL     1      28.078  21.518  10.664  1.00  0.00     0.034 A 
BRANCH  23  25
ATOM     25  C   UNL     1      25.841  21.585  11.778  1.00  0.00     0.270 C 
ATOM     26  O   UNL     1      25.527  21.367  12.942  1.00  0.00    -0.268 OA
ATOM     27  N   UNL     1      25.222  22.517  10.967  1.00  0.00    -0.348 N 
ATOM     28  H   UNL     1      25.605  22.575  10.025  1.00  0.00     0.164 HD
BRANCH  27  29
ATOM     29  C   UNL     1      24.117  23.360  11.421  1.00  0.00     0.082 C 
ATOM     30  C   UNL     1      23.101  23.744  10.318  1.00  0.00     0.025 C 
ATOM     31  C   UNL     1      24.455  24.867  11.514  1.00  0.00     0.025 C 
ATOM     32  C   UNL     1      23.040  25.142  10.966  1.00  0.00     0.004 C 
ENDBRANCH  27  29
ENDBRANCH  23  25
ENDBRANCH   7  19
TORSDOF 5
ENDMDL
MODEL 5
REMARK VINA RESULT:    -6.837      1.905      3.101
REMARK INTER + INTRA:         -10.129
REMARK INTER:                  -8.455
REMARK INTRA:                  -1.674
REMARK UNBOUND:                -1.294
REMARK SMILES Cn1c(CN2CC3(CC3)C[C@H]2c2cccc(C(=O)NC3CCC3)n2)nc2ccccc21
REMARK SMILES IDX 5 1 6 2 7 3 8 4 9 5 10 6 11 7 4 8 3 9 2 10 31 11 25 12 30 13
REMARK SMILES IDX 26 14 29 15 27 16 28 17 1 18 12 19 13 20 24 21 14 22 16 23
REMARK SMILES IDX 15 24 17 25 18 26 19 27 20 29 21 30 23 31 22 32
REMARK H PARENT 19 28
ROOT
ATOM      1  N   UNL     1      30.629  13.481   2.044  1.00  0.00    -0.287 NA
ATOM      2  C   UNL     1      29.526  12.510   2.184  1.00  0.00     0.092 C 
ATOM      3  C   UNL     1      28.407  13.063   1.346  1.00  0.00    -0.015 C 
ATOM      4  C   UNL     1      26.981  12.614   1.585  1.00  0.00     0.009 C 
ATOM      5  C   UNL     1      27.695  12.186   0.336  1.00  0.00     0.009 C 
ATOM      6  C   UNL     1      28.705  14.497   1.009  1.00  0.00     0.034 C 
ATOM      7  C   UNL     1      29.968  14.803   1.830  1.00  0.00     0.107 C 
ENDROOT
BRANCH   1   8
ATOM      8  C   UNL     1      31.502  13.133   0.910  1.00  0.00     0.160 C 
BRANCH   8   9
ATOM      9  C   UNL     1      32.756  13.961   0.913  1.00  0.00     0.123 A 
ATOM     10  N   UNL     1      33.625  14.040   1.980  1.00  0.00    -0.330 N 
ATOM     11  C   UNL     1      34.622  14.932   1.658  1.00  0.00     0.068 A 
ATOM     12  N   UNL     1      33.156  14.740  -0.076  1.00  0.00    -0.232 NA
ATOM     13  C   UNL     1      35.742  15.414   2.348  1.00  0.00     0.028 A 
ATOM     14  C   UNL     1      34.305  15.344   0.368  1.00  0.00     0.089 A 
ATOM     15  C   UNL     1      36.554  16.339   1.681  1.00  0.00     0.002 A 
ATOM     16  C   UNL     1      35.131  16.271  -0.285  1.00  0.00     0.030 A 
ATOM     17  C   UNL     1      36.257  16.761   0.385  1.00  0.00     0.002 A 
ATOM     18  C   UNL     1      33.489  13.347   3.239  1.00  0.00     0.151 C 
ENDBRANCH   8   9
ENDBRANCH   1   8
BRANCH   7  19
ATOM     19  C   UNL     1      29.688  15.488   3.170  1.00  0.00     0.058 A 
ATOM     20  C   UNL     1      28.414  16.012   3.408  1.00  0.00     0.025 A 
ATOM     21  N   UNL     1      30.701  15.622   4.065  1.00  0.00    -0.246 NA
ATOM     22  C   UNL     1      28.159  16.675   4.606  1.00  0.00     0.004 A 
ATOM     23  C   UNL     1      30.421  16.281   5.226  1.00  0.00     0.128 A 
ATOM     24  C   UNL     1      29.179  16.815   5.538  1.00  0.00     0.034 A 
BRANCH  23  25
ATOM     25  C   UNL     1      31.560  16.415   6.189  1.00  0.00     0.270 C 
ATOM     26  O   UNL     1      31.407  16.884   7.311  1.00  0.00    -0.268 OA
ATOM     27  N   UNL     1      32.769  15.968   5.692  1.00  0.00    -0.348 N 
ATOM     28  H   UNL     1      32.725  15.605   4.741  1.00  0.00     0.164 HD
BRANCH  27  29
ATOM     29  C   UNL     1      34.010  16.000   6.465  1.00  0.00     0.082 C 
ATOM     30  C   UNL     1      35.194  16.704   5.758  1.00  0.00     0.025 C 
ATOM     31  C   UNL     1      34.848  14.702   6.387  1.00  0.00     0.025 C 
ATOM     32  C   UNL     1      36.100  15.601   6.341  1.00  0.00     0.004 C 
ENDBRANCH  27  29
ENDBRANCH  23  25
ENDBRANCH   7  19
TORSDOF 5
ENDMDL
