REMARK SMILES Cn1c(CN2CC3(CC3)C[C@H]2c2cccc(C(=O)NCCF)n2)nc2ccccc21
REMARK SMILES IDX 12 1 13 2 14 3 15 4 16 5 23 6 11 7 5 8 6 9 7 10 10 11 8 12
REMARK SMILES IDX 9 13 4 14 3 15 2 16 30 17 24 18 29 19 25 20 28 21 26 22
REMARK SMILES IDX 27 23 1 24 17 25 18 26 19 27 20 29 21 30 22 31
REMARK H PARENT 19 28
ROOT
ATOM      1  C   UNL     1       1.619   0.884  -0.209  1.00  0.00     0.058 A 
ATOM      2  C   UNL     1       1.207   2.204  -0.005  1.00  0.00     0.025 A 
ATOM      3  C   UNL     1       2.054   3.092   0.653  1.00  0.00     0.004 A 
ATOM      4  C   UNL     1       3.297   2.652   1.089  1.00  0.00     0.034 A 
ATOM      5  C   UNL     1       3.639   1.330   0.846  1.00  0.00     0.128 A 
ATOM      6  N   UNL     1       2.832   0.433   0.206  1.00  0.00    -0.246 NA
ENDROOT
BRANCH   1   7
ATOM      7  C   UNL     1       0.732  -0.114  -0.931  1.00  0.00     0.107 C 
ATOM      8  N   UNL     1      -0.721   0.019  -0.688  1.00  0.00    -0.287 NA
ATOM      9  C   UNL     1      -1.392  -0.725  -1.761  1.00  0.00     0.092 C 
ATOM     10  C   UNL     1      -0.470  -0.520  -2.939  1.00  0.00    -0.015 C 
ATOM     11  C   UNL     1       0.830   0.057  -2.452  1.00  0.00     0.034 C 
ATOM     12  C   UNL     1      -1.023  -0.097  -4.283  1.00  0.00     0.009 C 
ATOM     13  C   UNL     1      -0.492  -1.488  -4.102  1.00  0.00     0.009 C 
BRANCH   8  14
ATOM     14  C   UNL     1      -1.115  -0.426   0.654  1.00  0.00     0.160 C 
BRANCH  14  15
ATOM     15  C   UNL     1      -2.542  -0.072   0.973  1.00  0.00     0.123 A 
ATOM     16  N   UNL     1      -3.550  -0.995   1.169  1.00  0.00    -0.330 N 
ATOM     17  C   UNL     1      -4.716  -0.314   1.434  1.00  0.00     0.068 A 
ATOM     18  N   UNL     1      -3.006   1.156   1.124  1.00  0.00    -0.232 NA
ATOM     19  C   UNL     1      -6.032  -0.718   1.699  1.00  0.00     0.028 A 
ATOM     20  C   UNL     1      -4.341   1.025   1.399  1.00  0.00     0.089 A 
ATOM     21  C   UNL     1      -6.977   0.289   1.930  1.00  0.00     0.002 A 
ATOM     22  C   UNL     1      -5.301   2.021   1.633  1.00  0.00     0.030 A 
ATOM     23  C   UNL     1      -6.621   1.638   1.899  1.00  0.00     0.002 A 
ATOM     24  C   UNL     1      -3.402  -2.429   1.113  1.00  0.00     0.151 C 
ENDBRANCH  14  15
ENDBRANCH   8  14
ENDBRANCH   1   7
BRANCH   5  25
ATOM     25  C   UNL     1       4.971   0.809   1.296  1.00  0.00     0.269 C 
ATOM     26  O   UNL     1       5.781   1.515   1.885  1.00  0.00    -0.268 OA
ATOM     27  N   UNL     1       5.197  -0.515   0.985  1.00  0.00    -0.348 N 
ATOM     28  H   UNL     1       4.431  -1.004   0.528  1.00  0.00     0.163 HD
BRANCH  27  29
ATOM     29  C   UNL     1       6.384  -1.228   1.406  1.00  0.00     0.150 C 
BRANCH  29  30
ATOM     30  C   UNL     1       7.653  -0.775   0.698  1.00  0.00     0.235 C 
ATOM     31  F   UNL     1       8.661  -1.637   1.009  1.00  0.00    -0.249 F 
ENDBRANCH  29  30
ENDBRANCH  27  29
ENDBRANCH   5  25
TORSDOF 6
