MODEL 1
REMARK VINA RESULT:    -6.392      0.000      0.000
REMARK INTER + INTRA:         -10.034
REMARK INTER:                  -8.634
REMARK INTRA:                  -1.400
REMARK UNBOUND:                -1.400
REMARK SMILES Cn1c(CN2CC3(CC3)C[C@H]2c2cccc(C(=O)NCCF)n2)nc2ccccc21
REMARK SMILES IDX 12 1 13 2 14 3 15 4 16 5 23 6 11 7 5 8 6 9 7 10 10 11 8 12
REMARK SMILES IDX 9 13 4 14 3 15 2 16 30 17 24 18 29 19 25 20 28 21 26 22
REMARK SMILES IDX 27 23 1 24 17 25 18 26 19 27 20 29 21 30 22 31
REMARK H PARENT 19 28
ROOT
ATOM      1  C   UNL     1      32.983  14.314   3.344  1.00  0.00     0.058 A 
ATOM      2  C   UNL     1      33.717  14.782   2.251  1.00  0.00     0.025 A 
ATOM      3  C   UNL     1      33.229  14.581   0.962  1.00  0.00     0.004 A 
ATOM      4  C   UNL     1      32.017  13.927   0.786  1.00  0.00     0.034 A 
ATOM      5  C   UNL     1      31.342  13.496   1.919  1.00  0.00     0.128 A 
ATOM      6  N   UNL     1      31.793  13.674   3.196  1.00  0.00    -0.246 NA
ENDROOT
BRANCH   1   7
ATOM      7  C   UNL     1      33.473  14.521   4.766  1.00  0.00     0.107 C 
ATOM      8  N   UNL     1      32.427  14.788   5.777  1.00  0.00    -0.287 NA
ATOM      9  C   UNL     1      33.041  14.540   7.087  1.00  0.00     0.092 C 
ATOM     10  C   UNL     1      34.003  13.412   6.799  1.00  0.00    -0.015 C 
ATOM     11  C   UNL     1      34.143  13.253   5.310  1.00  0.00     0.034 C 
ATOM     12  C   UNL     1      34.045  12.191   7.692  1.00  0.00     0.009 C 
ATOM     13  C   UNL     1      35.185  13.166   7.711  1.00  0.00     0.009 C 
BRANCH   8  14
ATOM     14  C   UNL     1      31.851  16.132   5.657  1.00  0.00     0.160 C 
BRANCH  14  15
ATOM     15  C   UNL     1      30.367  16.095   5.415  1.00  0.00     0.123 A 
ATOM     16  N   UNL     1      29.414  16.063   6.414  1.00  0.00    -0.330 N 
ATOM     17  C   UNL     1      28.170  16.029   5.826  1.00  0.00     0.068 A 
ATOM     18  N   UNL     1      29.788  16.107   4.227  1.00  0.00    -0.232 NA
ATOM     19  C   UNL     1      26.863  15.980   6.331  1.00  0.00     0.028 A 
ATOM     20  C   UNL     1      28.440  16.058   4.462  1.00  0.00     0.089 A 
ATOM     21  C   UNL     1      25.817  15.959   5.401  1.00  0.00     0.002 A 
ATOM     22  C   UNL     1      27.380  16.037   3.544  1.00  0.00     0.030 A 
ATOM     23  C   UNL     1      26.067  15.988   4.029  1.00  0.00     0.002 A 
ATOM     24  C   UNL     1      29.679  16.072   7.832  1.00  0.00     0.151 C 
ENDBRANCH  14  15
ENDBRANCH   8  14
ENDBRANCH   1   7
BRANCH   5  25
ATOM     25  C   UNL     1      30.029  12.786   1.780  1.00  0.00     0.269 C 
ATOM     26  O   UNL     1      29.856  11.650   2.204  1.00  0.00    -0.268 OA
ATOM     27  N   UNL     1      29.053  13.518   1.138  1.00  0.00    -0.348 N 
ATOM     28  H   UNL     1      29.310  14.464   0.867  1.00  0.00     0.163 HD
BRANCH  27  29
ATOM     29  C   UNL     1      27.695  13.045   0.979  1.00  0.00     0.150 C 
BRANCH  29  30
ATOM     30  C   UNL     1      27.482  12.203  -0.271  1.00  0.00     0.235 C 
ATOM     31  F   UNL     1      26.804  12.946  -1.190  1.00  0.00    -0.249 F 
ENDBRANCH  29  30
ENDBRANCH  27  29
ENDBRANCH   5  25
TORSDOF 6
ENDMDL
MODEL 2
REMARK VINA RESULT:    -6.389      2.685      7.444
REMARK INTER + INTRA:         -10.030
REMARK INTER:                  -8.816
REMARK INTRA:                  -1.214
REMARK UNBOUND:                -1.400
REMARK SMILES Cn1c(CN2CC3(CC3)C[C@H]2c2cccc(C(=O)NCCF)n2)nc2ccccc21
REMARK SMILES IDX 12 1 13 2 14 3 15 4 16 5 23 6 11 7 5 8 6 9 7 10 10 11 8 12
REMARK SMILES IDX 9 13 4 14 3 15 2 16 30 17 24 18 29 19 25 20 28 21 26 22
REMARK SMILES IDX 27 23 1 24 17 25 18 26 19 27 20 29 21 30 22 31
REMARK H PARENT 19 28
ROOT
ATOM      1  C   UNL     1      27.461  15.236   3.475  1.00  0.00     0.058 A 
ATOM      2  C   UNL     1      26.102  15.340   3.784  1.00  0.00     0.025 A 
ATOM      3  C   UNL     1      25.717  15.904   4.998  1.00  0.00     0.004 A 
ATOM      4  C   UNL     1      26.690  16.360   5.877  1.00  0.00     0.034 A 
ATOM      5  C   UNL     1      28.018  16.228   5.500  1.00  0.00     0.128 A 
ATOM      6  N   UNL     1      28.431  15.679   4.319  1.00  0.00    -0.246 NA
ENDROOT
BRANCH   1   7
ATOM      7  C   UNL     1      27.925  14.639   2.159  1.00  0.00     0.107 C 
ATOM      8  N   UNL     1      29.313  14.127   2.136  1.00  0.00    -0.287 NA
ATOM      9  C   UNL     1      29.411  13.247   0.965  1.00  0.00     0.092 C 
ATOM     10  C   UNL     1      28.032  12.636   0.887  1.00  0.00    -0.015 C 
ATOM     11  C   UNL     1      27.107  13.393   1.797  1.00  0.00     0.034 C 
ATOM     12  C   UNL     1      27.862  11.142   0.716  1.00  0.00     0.009 C 
ATOM     13  C   UNL     1      27.525  12.063  -0.419  1.00  0.00     0.009 C 
BRANCH   8  14
ATOM     14  C   UNL     1      30.314  15.200   2.135  1.00  0.00     0.160 C 
BRANCH  14  15
ATOM     15  C   UNL     1      31.580  14.796   2.840  1.00  0.00     0.123 A 
ATOM     16  N   UNL     1      32.761  14.474   2.201  1.00  0.00    -0.330 N 
ATOM     17  C   UNL     1      33.697  14.151   3.156  1.00  0.00     0.068 A 
ATOM     18  N   UNL     1      31.729  14.716   4.150  1.00  0.00    -0.232 NA
ATOM     19  C   UNL     1      35.038  13.746   3.097  1.00  0.00     0.028 A 
ATOM     20  C   UNL     1      33.020  14.313   4.361  1.00  0.00     0.089 A 
ATOM     21  C   UNL     1      35.687  13.503   4.313  1.00  0.00     0.002 A 
ATOM     22  C   UNL     1      33.687  14.065   5.570  1.00  0.00     0.030 A 
ATOM     23  C   UNL     1      35.026  13.659   5.532  1.00  0.00     0.002 A 
ATOM     24  C   UNL     1      32.977  14.483   0.774  1.00  0.00     0.151 C 
ENDBRANCH  14  15
ENDBRANCH   8  14
ENDBRANCH   1   7
BRANCH   5  25
ATOM     25  C   UNL     1      29.105  16.708   6.415  1.00  0.00     0.269 C 
ATOM     26  O   UNL     1      28.953  16.770   7.629  1.00  0.00    -0.268 OA
ATOM     27  N   UNL     1      30.269  17.071   5.771  1.00  0.00    -0.348 N 
ATOM     28  H   UNL     1      30.284  16.937   4.763  1.00  0.00     0.163 HD
BRANCH  27  29
ATOM     29  C   UNL     1      31.463  17.479   6.481  1.00  0.00     0.150 C 
BRANCH  29  30
ATOM     30  C   UNL     1      31.587  18.986   6.654  1.00  0.00     0.235 C 
ATOM     31  F   UNL     1      31.333  19.588   5.458  1.00  0.00    -0.249 F 
ENDBRANCH  29  30
ENDBRANCH  27  29
ENDBRANCH   5  25
TORSDOF 6
ENDMDL
MODEL 3
REMARK VINA RESULT:    -6.325      5.104      8.273
REMARK INTER + INTRA:          -9.943
REMARK INTER:                  -8.774
REMARK INTRA:                  -1.169
REMARK UNBOUND:                -1.400
REMARK SMILES Cn1c(CN2CC3(CC3)C[C@H]2c2cccc(C(=O)NCCF)n2)nc2ccccc21
REMARK SMILES IDX 12 1 13 2 14 3 15 4 16 5 23 6 11 7 5 8 6 9 7 10 10 11 8 12
REMARK SMILES IDX 9 13 4 14 3 15 2 16 30 17 24 18 29 19 25 20 28 21 26 22
REMARK SMILES IDX 27 23 1 24 17 25 18 26 19 27 20 29 21 30 22 31
REMARK H PARENT 19 28
ROOT
ATOM      1  C   UNL     1      27.904  16.039  11.167  1.00  0.00     0.058 A 
ATOM      2  C   UNL     1      26.573  16.356  11.453  1.00  0.00     0.025 A 
ATOM      3  C   UNL     1      25.631  15.335  11.544  1.00  0.00     0.004 A 
ATOM      4  C   UNL     1      26.031  14.019  11.356  1.00  0.00     0.034 A 
ATOM      5  C   UNL     1      27.369  13.781  11.081  1.00  0.00     0.128 A 
ATOM      6  N   UNL     1      28.319  14.758  10.983  1.00  0.00    -0.246 NA
ENDROOT
BRANCH   1   7
ATOM      7  C   UNL     1      28.966  17.119  11.070  1.00  0.00     0.107 C 
ATOM      8  N   UNL     1      29.122  17.754   9.743  1.00  0.00    -0.287 NA
ATOM      9  C   UNL     1      29.861  19.003   9.964  1.00  0.00     0.092 C 
ATOM     10  C   UNL     1      29.374  19.445  11.323  1.00  0.00    -0.015 C 
ATOM     11  C   UNL     1      28.626  18.313  11.970  1.00  0.00     0.034 C 
ATOM     12  C   UNL     1      28.923  20.872  11.551  1.00  0.00     0.009 C 
ATOM     13  C   UNL     1      30.206  20.393  12.160  1.00  0.00     0.009 C 
BRANCH   8  14
ATOM     14  C   UNL     1      29.766  16.871   8.763  1.00  0.00     0.160 C 
BRANCH  14  15
ATOM     15  C   UNL     1      28.911  16.658   7.544  1.00  0.00     0.123 A 
ATOM     16  N   UNL     1      29.343  16.840   6.246  1.00  0.00    -0.330 N 
ATOM     17  C   UNL     1      28.297  16.559   5.397  1.00  0.00     0.068 A 
ATOM     18  N   UNL     1      27.652  16.254   7.558  1.00  0.00    -0.232 NA
ATOM     19  C   UNL     1      28.153  16.580   4.002  1.00  0.00     0.028 A 
ATOM     20  C   UNL     1      27.259  16.197   6.248  1.00  0.00     0.089 A 
ATOM     21  C   UNL     1      26.903  16.219   3.483  1.00  0.00     0.002 A 
ATOM     22  C   UNL     1      26.014  15.838   5.710  1.00  0.00     0.030 A 
ATOM     23  C   UNL     1      25.849  15.853   4.320  1.00  0.00     0.002 A 
ATOM     24  C   UNL     1      30.670  17.246   5.849  1.00  0.00     0.151 C 
ENDBRANCH  14  15
ENDBRANCH   8  14
ENDBRANCH   1   7
BRANCH   5  25
ATOM     25  C   UNL     1      27.850  12.376  10.872  1.00  0.00     0.269 C 
ATOM     26  O   UNL     1      29.013  12.123  10.581  1.00  0.00    -0.268 OA
ATOM     27  N   UNL     1      26.876  11.414  11.031  1.00  0.00    -0.348 N 
ATOM     28  H   UNL     1      25.957  11.749  11.311  1.00  0.00     0.163 HD
BRANCH  27  29
ATOM     29  C   UNL     1      27.155   9.996  10.955  1.00  0.00     0.150 C 
BRANCH  29  30
ATOM     30  C   UNL     1      26.677   9.213  12.170  1.00  0.00     0.235 C 
ATOM     31  F   UNL     1      26.378   7.941  11.784  1.00  0.00    -0.249 F 
ENDBRANCH  29  30
ENDBRANCH  27  29
ENDBRANCH   5  25
TORSDOF 6
ENDMDL
MODEL 4
REMARK VINA RESULT:    -6.255      6.248      9.616
REMARK INTER + INTRA:          -9.849
REMARK INTER:                 -10.245
REMARK INTRA:                   0.396
REMARK UNBOUND:                -1.400
REMARK SMILES Cn1c(CN2CC3(CC3)C[C@H]2c2cccc(C(=O)NCCF)n2)nc2ccccc21
REMARK SMILES IDX 12 1 13 2 14 3 15 4 16 5 23 6 11 7 5 8 6 9 7 10 10 11 8 12
REMARK SMILES IDX 9 13 4 14 3 15 2 16 30 17 24 18 29 19 25 20 28 21 26 22
REMARK SMILES IDX 27 23 1 24 17 25 18 26 19 27 20 29 21 30 22 31
REMARK H PARENT 19 28
ROOT
ATOM      1  C   UNL     1      27.797  18.872  10.346  1.00  0.00     0.058 A 
ATOM      2  C   UNL     1      29.077  19.425  10.257  1.00  0.00     0.025 A 
ATOM      3  C   UNL     1      29.246  20.794  10.445  1.00  0.00     0.004 A 
ATOM      4  C   UNL     1      28.139  21.585  10.725  1.00  0.00     0.034 A 
ATOM      5  C   UNL     1      26.902  20.965  10.804  1.00  0.00     0.128 A 
ATOM      6  N   UNL     1      26.701  19.626  10.623  1.00  0.00    -0.246 NA
ENDROOT
BRANCH   1   7
ATOM      7  C   UNL     1      27.569  17.383  10.159  1.00  0.00     0.107 C 
ATOM      8  N   UNL     1      28.780  16.535  10.188  1.00  0.00    -0.287 NA
ATOM      9  C   UNL     1      28.320  15.159  10.410  1.00  0.00     0.092 C 
ATOM     10  C   UNL     1      27.112  15.348  11.296  1.00  0.00    -0.015 C 
ATOM     11  C   UNL     1      26.731  16.802  11.305  1.00  0.00     0.034 C 
ATOM     12  C   UNL     1      26.942  14.518  12.550  1.00  0.00     0.009 C 
ATOM     13  C   UNL     1      26.047  14.275  11.372  1.00  0.00     0.009 C 
BRANCH   8  14
ATOM     14  C   UNL     1      29.602  16.679   8.980  1.00  0.00     0.160 C 
BRANCH  14  15
ATOM     15  C   UNL     1      28.791  16.535   7.721  1.00  0.00     0.123 A 
ATOM     16  N   UNL     1      29.274  16.777   6.450  1.00  0.00    -0.330 N 
ATOM     17  C   UNL     1      28.258  16.550   5.551  1.00  0.00     0.068 A 
ATOM     18  N   UNL     1      27.530  16.143   7.669  1.00  0.00    -0.232 NA
ATOM     19  C   UNL     1      28.165  16.641   4.155  1.00  0.00     0.028 A 
ATOM     20  C   UNL     1      27.185  16.155   6.344  1.00  0.00     0.089 A 
ATOM     21  C   UNL     1      26.933  16.319   3.572  1.00  0.00     0.002 A 
ATOM     22  C   UNL     1      25.958  15.836   5.743  1.00  0.00     0.030 A 
ATOM     23  C   UNL     1      25.845  15.922   4.351  1.00  0.00     0.002 A 
ATOM     24  C   UNL     1      30.617  17.190   6.123  1.00  0.00     0.151 C 
ENDBRANCH  14  15
ENDBRANCH   8  14
ENDBRANCH   1   7
BRANCH   5  25
ATOM     25  C   UNL     1      25.678  21.777  11.106  1.00  0.00     0.269 C 
ATOM     26  O   UNL     1      24.554  21.288  11.100  1.00  0.00    -0.268 OA
ATOM     27  N   UNL     1      25.931  23.104  11.382  1.00  0.00    -0.348 N 
ATOM     28  H   UNL     1      26.910  23.379  11.394  1.00  0.00     0.163 HD
BRANCH  27  29
ATOM     29  C   UNL     1      24.896  24.033  11.781  1.00  0.00     0.150 C 
BRANCH  29  30
ATOM     30  C   UNL     1      24.032  24.519  10.626  1.00  0.00     0.235 C 
ATOM     31  F   UNL     1      24.548  25.688  10.153  1.00  0.00    -0.249 F 
ENDBRANCH  29  30
ENDBRANCH  27  29
ENDBRANCH   5  25
TORSDOF 6
ENDMDL
MODEL 5
REMARK VINA RESULT:    -6.199      6.066      8.333
REMARK INTER + INTRA:          -9.773
REMARK INTER:                  -9.108
REMARK INTRA:                  -0.665
REMARK UNBOUND:                -1.400
REMARK SMILES Cn1c(CN2CC3(CC3)C[C@H]2c2cccc(C(=O)NCCF)n2)nc2ccccc21
REMARK SMILES IDX 12 1 13 2 14 3 15 4 16 5 23 6 11 7 5 8 6 9 7 10 10 11 8 12
REMARK SMILES IDX 9 13 4 14 3 15 2 16 30 17 24 18 29 19 25 20 28 21 26 22
REMARK SMILES IDX 27 23 1 24 17 25 18 26 19 27 20 29 21 30 22 31
REMARK H PARENT 19 28
ROOT
ATOM      1  C   UNL     1      29.807  18.215   8.576  1.00  0.00     0.058 A 
ATOM      2  C   UNL     1      30.887  19.070   8.339  1.00  0.00     0.025 A 
ATOM      3  C   UNL     1      31.501  19.067   7.089  1.00  0.00     0.004 A 
ATOM      4  C   UNL     1      31.025  18.219   6.098  1.00  0.00     0.034 A 
ATOM      5  C   UNL     1      29.947  17.403   6.405  1.00  0.00     0.128 A 
ATOM      6  N   UNL     1      29.323  17.379   7.620  1.00  0.00    -0.246 NA
ENDROOT
BRANCH   1   7
ATOM      7  C   UNL     1      29.101  18.193   9.920  1.00  0.00     0.107 C 
ATOM      8  N   UNL     1      28.147  19.296  10.166  1.00  0.00    -0.287 NA
ATOM      9  C   UNL     1      27.299  18.870  11.286  1.00  0.00     0.092 C 
ATOM     10  C   UNL     1      27.196  17.378  11.081  1.00  0.00    -0.015 C 
ATOM     11  C   UNL     1      28.214  16.951  10.060  1.00  0.00     0.034 C 
ATOM     12  C   UNL     1      25.851  16.685  11.136  1.00  0.00     0.009 C 
ATOM     13  C   UNL     1      26.844  16.471  12.240  1.00  0.00     0.009 C 
BRANCH   8  14
ATOM     14  C   UNL     1      28.814  20.581  10.407  1.00  0.00     0.160 C 
BRANCH  14  15
ATOM     15  C   UNL     1      27.889  21.594  11.024  1.00  0.00     0.123 A 
ATOM     16  N   UNL     1      28.153  22.283  12.192  1.00  0.00    -0.330 N 
ATOM     17  C   UNL     1      27.089  23.115  12.455  1.00  0.00     0.068 A 
ATOM     18  N   UNL     1      26.724  21.966  10.524  1.00  0.00    -0.232 NA
ATOM     19  C   UNL     1      26.804  24.023  13.484  1.00  0.00     0.028 A 
ATOM     20  C   UNL     1      26.217  22.893  11.394  1.00  0.00     0.089 A 
ATOM     21  C   UNL     1      25.587  24.712  13.411  1.00  0.00     0.002 A 
ATOM     22  C   UNL     1      25.002  23.593  11.337  1.00  0.00     0.030 A 
ATOM     23  C   UNL     1      24.698  24.503  12.356  1.00  0.00     0.002 A 
ATOM     24  C   UNL     1      29.346  22.155  12.994  1.00  0.00     0.151 C 
ENDBRANCH  14  15
ENDBRANCH   8  14
ENDBRANCH   1   7
BRANCH   5  25
ATOM     25  C   UNL     1      29.396  16.471   5.367  1.00  0.00     0.269 C 
ATOM     26  O   UNL     1      29.958  15.425   5.068  1.00  0.00    -0.268 OA
ATOM     27  N   UNL     1      28.220  16.899   4.788  1.00  0.00    -0.348 N 
ATOM     28  H   UNL     1      27.833  17.767   5.150  1.00  0.00     0.163 HD
BRANCH  27  29
ATOM     29  C   UNL     1      27.485  16.104   3.827  1.00  0.00     0.150 C 
BRANCH  29  30
ATOM     30  C   UNL     1      26.023  15.898   4.195  1.00  0.00     0.235 C 
ATOM     31  F   UNL     1      25.847  16.239   5.502  1.00  0.00    -0.249 F 
ENDBRANCH  29  30
ENDBRANCH  27  29
ENDBRANCH   5  25
TORSDOF 6
ENDMDL
