REMARK SMILES Cn1c(CN2CC3(CC3)C[C@@H]2c2cccc(C(=O)NCCF)n2)nc2ccccc21
REMARK SMILES IDX 12 1 13 2 14 3 15 4 16 5 23 6 11 7 5 8 6 9 7 10 10 11 8 12
REMARK SMILES IDX 9 13 4 14 3 15 2 16 30 17 24 18 29 19 25 20 28 21 26 22
REMARK SMILES IDX 27 23 1 24 17 25 18 26 19 27 20 29 21 30 22 31
REMARK H PARENT 19 28
ROOT
ATOM      1  C   UNL     1      -1.962  -1.341  -0.506  1.00  0.00     0.058 A 
ATOM      2  C   UNL     1      -1.964  -2.121  -1.664  1.00  0.00     0.025 A 
ATOM      3  C   UNL     1      -3.050  -2.058  -2.538  1.00  0.00     0.004 A 
ATOM      4  C   UNL     1      -4.112  -1.213  -2.246  1.00  0.00     0.034 A 
ATOM      5  C   UNL     1      -4.041  -0.465  -1.082  1.00  0.00     0.128 A 
ATOM      6  N   UNL     1      -2.999  -0.515  -0.203  1.00  0.00    -0.246 NA
ENDROOT
BRANCH   1   7
ATOM      7  C   UNL     1      -0.806  -1.356   0.494  1.00  0.00     0.107 C 
ATOM      8  N   UNL     1       0.394  -0.630  -0.001  1.00  0.00    -0.287 NA
ATOM      9  C   UNL     1       1.271  -1.627  -0.632  1.00  0.00     0.092 C 
ATOM     10  C   UNL     1       0.949  -2.923   0.067  1.00  0.00    -0.015 C 
ATOM     11  C   UNL     1      -0.305  -2.755   0.877  1.00  0.00     0.034 C 
ATOM     12  C   UNL     1       1.250  -4.244  -0.608  1.00  0.00     0.009 C 
ATOM     13  C   UNL     1       2.062  -3.814   0.578  1.00  0.00     0.009 C 
BRANCH   8  14
ATOM     14  C   UNL     1       1.053   0.093   1.101  1.00  0.00     0.160 C 
BRANCH  14  15
ATOM     15  C   UNL     1       2.174   0.986   0.637  1.00  0.00     0.123 A 
ATOM     16  N   UNL     1       3.491   0.844   1.029  1.00  0.00    -0.330 N 
ATOM     17  C   UNL     1       4.235   1.828   0.419  1.00  0.00     0.068 A 
ATOM     18  N   UNL     1       2.045   2.023  -0.172  1.00  0.00    -0.232 NA
ATOM     19  C   UNL     1       5.596   2.163   0.438  1.00  0.00     0.028 A 
ATOM     20  C   UNL     1       3.302   2.545  -0.324  1.00  0.00     0.089 A 
ATOM     21  C   UNL     1       5.995   3.264  -0.331  1.00  0.00     0.002 A 
ATOM     22  C   UNL     1       3.720   3.645  -1.087  1.00  0.00     0.030 A 
ATOM     23  C   UNL     1       5.075   3.995  -1.082  1.00  0.00     0.002 A 
ATOM     24  C   UNL     1       3.998  -0.164   1.928  1.00  0.00     0.151 C 
ENDBRANCH  14  15
ENDBRANCH   8  14
ENDBRANCH   1   7
BRANCH   5  25
ATOM     25  C   UNL     1      -5.153   0.477  -0.730  1.00  0.00     0.269 C 
ATOM     26  O   UNL     1      -6.158   0.586  -1.423  1.00  0.00    -0.268 OA
ATOM     27  N   UNL     1      -4.934   1.205   0.420  1.00  0.00    -0.348 N 
ATOM     28  H   UNL     1      -4.036   1.061   0.876  1.00  0.00     0.163 HD
BRANCH  27  29
ATOM     29  C   UNL     1      -5.868   2.193   0.912  1.00  0.00     0.150 C 
BRANCH  29  30
ATOM     30  C   UNL     1      -5.903   3.465   0.076  1.00  0.00     0.235 C 
ATOM     31  F   UNL     1      -6.681   4.387   0.708  1.00  0.00    -0.249 F 
ENDBRANCH  29  30
ENDBRANCH  27  29
ENDBRANCH   5  25
TORSDOF 6
