REMARK SMILES Cc1c(C(=O)N2CCc3ccc(C(=O)NCc4ccc(N5CC[NH+](C)CC5)cc4)nc3C2)oc2ccccc12
REMARK SMILES IDX 13 1 15 2 14 3 12 5 6 6 32 7 7 8 31 9 8 10 9 11 30 12 10 13
REMARK SMILES IDX 11 14 4 15 5 16 3 17 2 18 39 19 33 20 38 21 34 22 37 23
REMARK SMILES IDX 35 24 36 25 1 26 16 27 17 28 29 29 18 30 28 31 19 32 20 33
REMARK SMILES IDX 21 34 22 35 27 36 23 37 26 38 24 39 25 40
REMARK H PARENT 15 4 24 41
ROOT
ATOM      1  C   UNL     1      30.843   5.947 -22.477  1.00  0.00     0.270 C 
ATOM      2  N   UNL     1      30.379   7.148 -22.819  1.00  0.00    -0.347 N 
ATOM      3  O   UNL     1      32.013   5.719 -22.187  1.00  0.00    -0.268 OA
ATOM      4  H   UNL     1      29.433   7.228 -23.079  1.00  0.00     0.164 HD
ENDROOT
BRANCH   1   5
ATOM      5  C   UNL     1      29.825   4.902 -22.386  1.00  0.00     0.128 A 
ATOM      6  N   UNL     1      25.862   2.869 -24.038  1.00  0.00    -0.330 N 
ATOM      7  C   UNL     1      26.726   4.055 -24.153  1.00  0.00     0.176 C 
ATOM      8  C   UNL     1      25.530   2.538 -22.650  1.00  0.00     0.125 C 
ATOM      9  C   UNL     1      27.849   3.997 -23.147  1.00  0.00     0.064 A 
ATOM     10  C   UNL     1      26.788   1.971 -22.050  1.00  0.00     0.059 C 
ATOM     11  C   UNL     1      27.880   2.994 -22.175  1.00  0.00    -0.023 A 
ATOM     12  N   UNL     1      28.812   4.927 -23.235  1.00  0.00    -0.245 NA
ATOM     13  C   UNL     1      28.938   2.990 -21.281  1.00  0.00     0.008 A 
ATOM     14  C   UNL     1      29.927   3.937 -21.367  1.00  0.00     0.034 A 
BRANCH   6  15
ATOM     15  C   UNL     1      25.499   2.052 -25.056  1.00  0.00     0.290 C 
ATOM     16  O   UNL     1      25.046   0.937 -24.826  1.00  0.00    -0.265 OA
BRANCH  15  17
ATOM     17  C   UNL     1      25.656   2.388 -26.431  1.00  0.00     0.195 A 
ATOM     18  C   UNL     1      26.270   1.682 -27.413  1.00  0.00     0.008 A 
ATOM     19  C   UNL     1      26.138   2.478 -28.604  1.00  0.00     0.024 A 
ATOM     20  O   UNL     1      25.141   3.586 -26.903  1.00  0.00    -0.451 OA
ATOM     21  C   UNL     1      26.531   2.340 -29.935  1.00  0.00     0.012 A 
ATOM     22  C   UNL     1      25.443   3.620 -28.235  1.00  0.00     0.135 A 
ATOM     23  C   UNL     1      26.217   3.345 -30.817  1.00  0.00     0.001 A 
ATOM     24  C   UNL     1      25.113   4.637 -29.105  1.00  0.00     0.048 A 
ATOM     25  C   UNL     1      25.519   4.474 -30.409  1.00  0.00     0.004 A 
ATOM     26  C   UNL     1      26.947   0.354 -27.330  1.00  0.00     0.049 C 
ENDBRANCH  15  17
ENDBRANCH   6  15
ENDBRANCH   1   5
BRANCH   2  27
ATOM     27  C   UNL     1      31.202   8.346 -22.827  1.00  0.00     0.152 C 
BRANCH  27  28
ATOM     28  C   UNL     1      32.270   8.303 -23.887  1.00  0.00    -0.029 A 
ATOM     29  C   UNL     1      33.522   8.832 -23.640  1.00  0.00     0.008 A 
ATOM     30  C   UNL     1      32.029   7.717 -25.119  1.00  0.00     0.008 A 
ATOM     31  C   UNL     1      34.506   8.793 -24.602  1.00  0.00     0.026 A 
ATOM     32  C   UNL     1      33.008   7.667 -26.086  1.00  0.00     0.026 A 
ATOM     33  C   UNL     1      34.271   8.199 -25.840  1.00  0.00     0.037 A 
BRANCH  33  34
ATOM     34  N   UNL     1      35.250   8.176 -26.797  1.00  0.00    -0.360 N 
ATOM     35  C   UNL     1      35.071   8.731 -28.142  1.00  0.00     0.178 C 
ATOM     36  C   UNL     1      36.601   7.667 -26.556  1.00  0.00     0.178 C 
ATOM     37  C   UNL     1      36.094   8.196 -29.114  1.00  0.00     0.283 C 
ATOM     38  C   UNL     1      37.627   8.525 -27.254  1.00  0.00     0.283 C 
ATOM     39  N   UNL     1      37.462   8.525 -28.710  1.00  0.00    -0.334 N 
ATOM     40  C   UNL     1      38.427   7.648 -29.369  1.00  0.00     0.332 C 
ATOM     41  H   UNL     1      37.649   9.479 -29.018  1.00  0.00     0.347 HD
ENDBRANCH  33  34
ENDBRANCH  27  28
ENDBRANCH   2  27
TORSDOF 6
