MODEL 1
REMARK VINA RESULT:   -12.614      0.000      0.000
REMARK INTER + INTRA:         -18.018
REMARK INTER:                 -17.038
REMARK INTRA:                  -0.979
REMARK UNBOUND:                -0.979
REMARK SMILES Cc1c(C(=O)N2CCc3ccc(C(=O)NCc4ccc(N5CC[NH+](C)CC5)cc4)nc3C2)oc2ccccc12
REMARK SMILES IDX 14 1 13 2 15 3 12 5 30 6 11 7 31 8 10 9 9 10 32 11 8 12 6 13
REMARK SMILES IDX 7 14 4 15 5 16 3 17 33 18 2 19 34 20 39 21 35 22 38 23 36 24
REMARK SMILES IDX 37 25 1 26 16 27 17 28 18 29 29 30 19 31 28 32 20 33 21 34
REMARK SMILES IDX 22 35 27 36 23 37 26 38 24 39 25 40
REMARK H PARENT 15 4 24 41
ROOT
ATOM      1  O   UNL     1      29.678   4.414 -21.519  1.00  0.00    -0.268 OA
ATOM      2  C   UNL     1      29.189   4.910 -22.517  1.00  0.00     0.270 C 
ATOM      3  N   UNL     1      29.567   6.141 -23.015  1.00  0.00    -0.347 N 
ATOM      4  H   UNL     1      29.140   6.465 -23.841  1.00  0.00     0.164 HD
ENDROOT
BRANCH   2   5
ATOM      5  C   UNL     1      28.090   4.189 -23.274  1.00  0.00     0.128 A 
ATOM      6  N   UNL     1      27.472   3.132 -22.666  1.00  0.00    -0.245 NA
ATOM      7  C   UNL     1      27.781   4.611 -24.564  1.00  0.00     0.034 A 
ATOM      8  C   UNL     1      26.507   2.476 -23.382  1.00  0.00     0.064 A 
ATOM      9  C   UNL     1      26.816   3.917 -25.288  1.00  0.00     0.008 A 
ATOM     10  C   UNL     1      26.170   2.823 -24.703  1.00  0.00    -0.023 A 
ATOM     11  C   UNL     1      25.808   1.300 -22.702  1.00  0.00     0.176 C 
ATOM     12  C   UNL     1      25.093   2.088 -25.470  1.00  0.00     0.059 C 
ATOM     13  N   UNL     1      24.578   0.882 -23.375  1.00  0.00    -0.330 N 
ATOM     14  C   UNL     1      24.679   0.764 -24.823  1.00  0.00     0.125 C 
BRANCH  13  15
ATOM     15  C   UNL     1      23.532   0.314 -22.628  1.00  0.00     0.290 C 
ATOM     16  O   UNL     1      22.369   0.376 -23.027  1.00  0.00    -0.265 OA
BRANCH  15  17
ATOM     17  C   UNL     1      23.929  -0.538 -21.481  1.00  0.00     0.195 A 
ATOM     18  O   UNL     1      24.247  -1.831 -21.885  1.00  0.00    -0.451 OA
ATOM     19  C   UNL     1      23.287  -0.719 -20.248  1.00  0.00     0.008 A 
ATOM     20  C   UNL     1      23.193  -2.568 -21.454  1.00  0.00     0.135 A 
ATOM     21  C   UNL     1      22.488  -1.870 -20.483  1.00  0.00     0.024 A 
ATOM     22  C   UNL     1      22.854  -3.829 -21.927  1.00  0.00     0.048 A 
ATOM     23  C   UNL     1      21.347  -2.453 -19.922  1.00  0.00     0.012 A 
ATOM     24  C   UNL     1      21.682  -4.364 -21.400  1.00  0.00     0.004 A 
ATOM     25  C   UNL     1      20.936  -3.696 -20.423  1.00  0.00     0.001 A 
ATOM     26  C   UNL     1      23.446  -0.049 -18.936  1.00  0.00     0.049 C 
ENDBRANCH  15  17
ENDBRANCH  13  15
ENDBRANCH   2   5
BRANCH   3  27
ATOM     27  C   UNL     1      30.566   6.981 -22.377  1.00  0.00     0.152 C 
BRANCH  27  28
ATOM     28  C   UNL     1      31.679   7.358 -23.324  1.00  0.00    -0.029 A 
ATOM     29  C   UNL     1      31.450   7.536 -24.692  1.00  0.00     0.008 A 
ATOM     30  C   UNL     1      32.973   7.569 -22.835  1.00  0.00     0.008 A 
ATOM     31  C   UNL     1      32.506   7.868 -25.548  1.00  0.00     0.026 A 
ATOM     32  C   UNL     1      34.024   7.906 -23.698  1.00  0.00     0.026 A 
ATOM     33  C   UNL     1      33.815   8.040 -25.074  1.00  0.00     0.037 A 
BRANCH  33  34
ATOM     34  N   UNL     1      34.820   8.368 -25.982  1.00  0.00    -0.360 N 
ATOM     35  C   UNL     1      36.227   8.278 -25.557  1.00  0.00     0.178 C 
ATOM     36  C   UNL     1      34.621   7.850 -27.353  1.00  0.00     0.178 C 
ATOM     37  C   UNL     1      37.105   9.071 -26.555  1.00  0.00     0.283 C 
ATOM     38  C   UNL     1      35.519   8.650 -28.329  1.00  0.00     0.283 C 
ATOM     39  N   UNL     1      36.953   8.598 -27.952  1.00  0.00    -0.334 N 
ATOM     40  C   UNL     1      37.752   9.415 -28.860  1.00  0.00     0.332 C 
ATOM     41  H   UNL     1      37.285   7.636 -28.021  1.00  0.00     0.347 HD
ENDBRANCH  33  34
ENDBRANCH  27  28
ENDBRANCH   3  27
TORSDOF 6
ENDMDL
MODEL 2
REMARK VINA RESULT:   -12.195      1.546      2.603
REMARK INTER + INTRA:         -17.452
REMARK INTER:                 -16.431
REMARK INTRA:                  -1.021
REMARK UNBOUND:                -0.979
REMARK SMILES Cc1c(C(=O)N2CCc3ccc(C(=O)NCc4ccc(N5CC[NH+](C)CC5)cc4)nc3C2)oc2ccccc12
REMARK SMILES IDX 14 1 13 2 15 3 12 5 30 6 11 7 31 8 10 9 9 10 32 11 8 12 6 13
REMARK SMILES IDX 7 14 4 15 5 16 3 17 33 18 2 19 34 20 39 21 35 22 38 23 36 24
REMARK SMILES IDX 37 25 1 26 16 27 17 28 18 29 29 30 19 31 28 32 20 33 21 34
REMARK SMILES IDX 22 35 27 36 23 37 26 38 24 39 25 40
REMARK H PARENT 15 4 24 41
ROOT
ATOM      1  O   UNL     1      30.800   5.274 -21.692  1.00  0.00    -0.268 OA
ATOM      2  C   UNL     1      29.970   5.720 -22.462  1.00  0.00     0.270 C 
ATOM      3  N   UNL     1      30.024   7.000 -22.975  1.00  0.00    -0.347 N 
ATOM      4  H   UNL     1      29.327   7.282 -23.611  1.00  0.00     0.164 HD
ENDROOT
BRANCH   2   5
ATOM      5  C   UNL     1      28.786   4.875 -22.890  1.00  0.00     0.128 A 
ATOM      6  N   UNL     1      28.471   3.775 -22.142  1.00  0.00    -0.245 NA
ATOM      7  C   UNL     1      28.093   5.234 -24.043  1.00  0.00     0.034 A 
ATOM      8  C   UNL     1      27.419   3.009 -22.568  1.00  0.00     0.064 A 
ATOM      9  C   UNL     1      27.043   4.430 -24.477  1.00  0.00     0.008 A 
ATOM     10  C   UNL     1      26.699   3.291 -23.743  1.00  0.00    -0.023 A 
ATOM     11  C   UNL     1      27.060   1.785 -21.729  1.00  0.00     0.176 C 
ATOM     12  C   UNL     1      25.535   2.433 -24.187  1.00  0.00     0.059 C 
ATOM     13  N   UNL     1      25.742   1.230 -22.039  1.00  0.00    -0.330 N 
ATOM     14  C   UNL     1      25.454   1.089 -23.459  1.00  0.00     0.125 C 
BRANCH  13  15
ATOM     15  C   UNL     1      25.006   0.576 -21.036  1.00  0.00     0.290 C 
ATOM     16  O   UNL     1      25.471   0.441 -19.904  1.00  0.00    -0.265 OA
BRANCH  15  17
ATOM     17  C   UNL     1      23.590   0.272 -21.349  1.00  0.00     0.195 A 
ATOM     18  O   UNL     1      22.820   1.429 -21.434  1.00  0.00    -0.451 OA
ATOM     19  C   UNL     1      22.730  -0.660 -20.750  1.00  0.00     0.008 A 
ATOM     20  C   UNL     1      22.079   1.402 -20.298  1.00  0.00     0.135 A 
ATOM     21  C   UNL     1      22.067   0.121 -19.766  1.00  0.00     0.024 A 
ATOM     22  C   UNL     1      21.438   2.500 -19.737  1.00  0.00     0.048 A 
ATOM     23  C   UNL     1      21.369  -0.114 -18.577  1.00  0.00     0.012 A 
ATOM     24  C   UNL     1      20.802   2.258 -18.524  1.00  0.00     0.004 A 
ATOM     25  C   UNL     1      20.767   0.984 -17.946  1.00  0.00     0.001 A 
ATOM     26  C   UNL     1      22.402  -2.067 -21.082  1.00  0.00     0.049 C 
ENDBRANCH  15  17
ENDBRANCH  13  15
ENDBRANCH   2   5
BRANCH   3  27
ATOM     27  C   UNL     1      31.063   7.953 -22.622  1.00  0.00     0.152 C 
BRANCH  27  28
ATOM     28  C   UNL     1      32.144   8.030 -23.672  1.00  0.00    -0.029 A 
ATOM     29  C   UNL     1      31.883   7.743 -25.016  1.00  0.00     0.008 A 
ATOM     30  C   UNL     1      33.438   8.426 -23.317  1.00  0.00     0.008 A 
ATOM     31  C   UNL     1      32.911   7.805 -25.964  1.00  0.00     0.026 A 
ATOM     32  C   UNL     1      34.460   8.491 -24.273  1.00  0.00     0.026 A 
ATOM     33  C   UNL     1      34.221   8.160 -25.610  1.00  0.00     0.037 A 
BRANCH  33  34
ATOM     34  N   UNL     1      35.197   8.201 -26.604  1.00  0.00    -0.360 N 
ATOM     35  C   UNL     1      34.822   8.642 -27.958  1.00  0.00     0.178 C 
ATOM     36  C   UNL     1      36.502   8.756 -26.182  1.00  0.00     0.178 C 
ATOM     37  C   UNL     1      35.927   8.210 -28.952  1.00  0.00     0.283 C 
ATOM     38  C   UNL     1      37.586   8.321 -27.199  1.00  0.00     0.283 C 
ATOM     39  N   UNL     1      37.264   8.738 -28.585  1.00  0.00    -0.334 N 
ATOM     40  C   UNL     1      38.279   8.253 -29.516  1.00  0.00     0.332 C 
ATOM     41  H   UNL     1      37.251   9.756 -28.637  1.00  0.00     0.347 HD
ENDBRANCH  33  34
ENDBRANCH  27  28
ENDBRANCH   3  27
TORSDOF 6
ENDMDL
MODEL 3
REMARK VINA RESULT:   -11.141      3.688      6.252
REMARK INTER + INTRA:         -16.028
REMARK INTER:                 -15.185
REMARK INTRA:                  -0.844
REMARK UNBOUND:                -0.979
REMARK SMILES Cc1c(C(=O)N2CCc3ccc(C(=O)NCc4ccc(N5CC[NH+](C)CC5)cc4)nc3C2)oc2ccccc12
REMARK SMILES IDX 14 1 13 2 15 3 12 5 30 6 11 7 31 8 10 9 9 10 32 11 8 12 6 13
REMARK SMILES IDX 7 14 4 15 5 16 3 17 33 18 2 19 34 20 39 21 35 22 38 23 36 24
REMARK SMILES IDX 37 25 1 26 16 27 17 28 18 29 29 30 19 31 28 32 20 33 21 34
REMARK SMILES IDX 22 35 27 36 23 37 26 38 24 39 25 40
REMARK H PARENT 15 4 24 41
ROOT
ATOM      1  O   UNL     1      28.276   1.711 -16.935  1.00  0.00    -0.268 OA
ATOM      2  C   UNL     1      27.634   2.682 -16.581  1.00  0.00     0.270 C 
ATOM      3  N   UNL     1      28.196   3.925 -16.369  1.00  0.00    -0.347 N 
ATOM      4  H   UNL     1      27.607   4.668 -16.104  1.00  0.00     0.164 HD
ENDROOT
BRANCH   2   5
ATOM      5  C   UNL     1      26.145   2.567 -16.323  1.00  0.00     0.128 A 
ATOM      6  N   UNL     1      25.331   2.228 -17.367  1.00  0.00    -0.245 NA
ATOM      7  C   UNL     1      25.666   2.843 -15.045  1.00  0.00     0.034 A 
ATOM      8  C   UNL     1      23.986   2.163 -17.118  1.00  0.00     0.064 A 
ATOM      9  C   UNL     1      24.294   2.798 -14.815  1.00  0.00     0.008 A 
ATOM     10  C   UNL     1      23.429   2.465 -15.862  1.00  0.00    -0.023 A 
ATOM     11  C   UNL     1      23.076   1.775 -18.281  1.00  0.00     0.176 C 
ATOM     12  C   UNL     1      21.941   2.378 -15.610  1.00  0.00     0.059 C 
ATOM     13  N   UNL     1      21.726   1.392 -17.865  1.00  0.00    -0.330 N 
ATOM     14  C   UNL     1      21.109   2.280 -16.891  1.00  0.00     0.125 C 
BRANCH  13  15
ATOM     15  C   UNL     1      21.000   0.460 -18.626  1.00  0.00     0.290 C 
ATOM     16  O   UNL     1      20.281   0.830 -19.554  1.00  0.00    -0.265 OA
BRANCH  15  17
ATOM     17  C   UNL     1      21.319  -0.969 -18.396  1.00  0.00     0.195 A 
ATOM     18  O   UNL     1      22.582  -1.300 -18.879  1.00  0.00    -0.451 OA
ATOM     19  C   UNL     1      20.546  -2.106 -18.673  1.00  0.00     0.008 A 
ATOM     20  C   UNL     1      22.317  -2.030 -19.992  1.00  0.00     0.135 A 
ATOM     21  C   UNL     1      21.007  -2.485 -19.962  1.00  0.00     0.024 A 
ATOM     22  C   UNL     1      23.218  -2.271 -21.021  1.00  0.00     0.048 A 
ATOM     23  C   UNL     1      20.528  -3.246 -21.034  1.00  0.00     0.012 A 
ATOM     24  C   UNL     1      22.704  -2.977 -22.104  1.00  0.00     0.004 A 
ATOM     25  C   UNL     1      21.388  -3.453 -22.122  1.00  0.00     0.001 A 
ATOM     26  C   UNL     1      19.592  -2.884 -17.849  1.00  0.00     0.049 C 
ENDBRANCH  15  17
ENDBRANCH  13  15
ENDBRANCH   2   5
BRANCH   3  27
ATOM     27  C   UNL     1      29.617   4.189 -16.519  1.00  0.00     0.152 C 
BRANCH  27  28
ATOM     28  C   UNL     1      29.948   4.756 -17.878  1.00  0.00    -0.029 A 
ATOM     29  C   UNL     1      29.897   3.970 -19.034  1.00  0.00     0.008 A 
ATOM     30  C   UNL     1      30.287   6.108 -18.009  1.00  0.00     0.008 A 
ATOM     31  C   UNL     1      30.227   4.521 -20.277  1.00  0.00     0.026 A 
ATOM     32  C   UNL     1      30.611   6.652 -19.258  1.00  0.00     0.026 A 
ATOM     33  C   UNL     1      30.610   5.863 -20.413  1.00  0.00     0.037 A 
BRANCH  33  34
ATOM     34  N   UNL     1      30.927   6.346 -21.681  1.00  0.00    -0.360 N 
ATOM     35  C   UNL     1      29.925   6.248 -22.756  1.00  0.00     0.178 C 
ATOM     36  C   UNL     1      31.635   7.644 -21.700  1.00  0.00     0.178 C 
ATOM     37  C   UNL     1      30.630   6.446 -24.120  1.00  0.00     0.283 C 
ATOM     38  C   UNL     1      32.320   7.824 -23.078  1.00  0.00     0.283 C 
ATOM     39  N   UNL     1      31.359   7.735 -24.204  1.00  0.00    -0.334 N 
ATOM     40  C   UNL     1      32.056   7.847 -25.482  1.00  0.00     0.332 C 
ATOM     41  H   UNL     1      30.693   8.505 -24.142  1.00  0.00     0.347 HD
ENDBRANCH  33  34
ENDBRANCH  27  28
ENDBRANCH   3  27
TORSDOF 6
ENDMDL
MODEL 4
REMARK VINA RESULT:   -10.657      4.744     13.745
REMARK INTER + INTRA:         -15.374
REMARK INTER:                 -14.463
REMARK INTRA:                  -0.912
REMARK UNBOUND:                -0.979
REMARK SMILES Cc1c(C(=O)N2CCc3ccc(C(=O)NCc4ccc(N5CC[NH+](C)CC5)cc4)nc3C2)oc2ccccc12
REMARK SMILES IDX 14 1 13 2 15 3 12 5 30 6 11 7 31 8 10 9 9 10 32 11 8 12 6 13
REMARK SMILES IDX 7 14 4 15 5 16 3 17 33 18 2 19 34 20 39 21 35 22 38 23 36 24
REMARK SMILES IDX 37 25 1 26 16 27 17 28 18 29 29 30 19 31 28 32 20 33 21 34
REMARK SMILES IDX 22 35 27 36 23 37 26 38 24 39 25 40
REMARK H PARENT 15 4 24 41
ROOT
ATOM      1  O   UNL     1      23.663   1.918 -15.520  1.00  0.00    -0.268 OA
ATOM      2  C   UNL     1      24.286   2.339 -16.476  1.00  0.00     0.270 C 
ATOM      3  N   UNL     1      23.726   2.523 -17.724  1.00  0.00    -0.347 N 
ATOM      4  H   UNL     1      24.290   2.889 -18.443  1.00  0.00     0.164 HD
ENDROOT
BRANCH   2   5
ATOM      5  C   UNL     1      25.760   2.670 -16.347  1.00  0.00     0.128 A 
ATOM      6  N   UNL     1      26.409   3.173 -17.440  1.00  0.00    -0.245 NA
ATOM      7  C   UNL     1      26.397   2.416 -15.135  1.00  0.00     0.034 A 
ATOM      8  C   UNL     1      27.747   3.432 -17.310  1.00  0.00     0.064 A 
ATOM      9  C   UNL     1      27.763   2.660 -15.027  1.00  0.00     0.008 A 
ATOM     10  C   UNL     1      28.463   3.165 -16.128  1.00  0.00    -0.023 A 
ATOM     11  C   UNL     1      28.473   4.003 -18.526  1.00  0.00     0.176 C 
ATOM     12  C   UNL     1      29.939   3.468 -16.006  1.00  0.00     0.059 C 
ATOM     13  N   UNL     1      29.785   4.569 -18.212  1.00  0.00    -0.330 N 
ATOM     14  C   UNL     1      30.619   3.746 -17.349  1.00  0.00     0.125 C 
BRANCH  13  15
ATOM     15  C   UNL     1      30.287   5.633 -18.981  1.00  0.00     0.290 C 
ATOM     16  O   UNL     1      30.396   6.761 -18.497  1.00  0.00    -0.265 OA
BRANCH  15  17
ATOM     17  C   UNL     1      30.873   5.278 -20.295  1.00  0.00     0.195 A 
ATOM     18  O   UNL     1      32.215   5.638 -20.376  1.00  0.00    -0.451 OA
ATOM     19  C   UNL     1      30.379   5.531 -21.583  1.00  0.00     0.008 A 
ATOM     20  C   UNL     1      32.207   6.712 -21.204  1.00  0.00     0.135 A 
ATOM     21  C   UNL     1      31.023   6.751 -21.925  1.00  0.00     0.024 A 
ATOM     22  C   UNL     1      33.228   7.650 -21.305  1.00  0.00     0.048 A 
ATOM     23  C   UNL     1      30.809   7.799 -22.827  1.00  0.00     0.012 A 
ATOM     24  C   UNL     1      32.970   8.716 -22.161  1.00  0.00     0.004 A 
ATOM     25  C   UNL     1      31.787   8.800 -22.905  1.00  0.00     0.001 A 
ATOM     26  C   UNL     1      29.536   4.728 -22.501  1.00  0.00     0.049 C 
ENDBRANCH  15  17
ENDBRANCH  13  15
ENDBRANCH   2   5
BRANCH   3  27
ATOM     27  C   UNL     1      22.341   2.203 -18.026  1.00  0.00     0.152 C 
BRANCH  27  28
ATOM     28  C   UNL     1      22.185   0.797 -18.550  1.00  0.00    -0.029 A 
ATOM     29  C   UNL     1      20.988   0.088 -18.404  1.00  0.00     0.008 A 
ATOM     30  C   UNL     1      23.243   0.181 -19.229  1.00  0.00     0.008 A 
ATOM     31  C   UNL     1      20.880  -1.222 -18.885  1.00  0.00     0.026 A 
ATOM     32  C   UNL     1      23.124  -1.129 -19.711  1.00  0.00     0.026 A 
ATOM     33  C   UNL     1      21.949  -1.863 -19.529  1.00  0.00     0.037 A 
BRANCH  33  34
ATOM     34  N   UNL     1      21.773  -3.169 -19.982  1.00  0.00    -0.360 N 
ATOM     35  C   UNL     1      21.035  -4.126 -19.140  1.00  0.00     0.178 C 
ATOM     36  C   UNL     1      21.412  -3.296 -21.411  1.00  0.00     0.178 C 
ATOM     37  C   UNL     1      21.329  -5.562 -19.635  1.00  0.00     0.283 C 
ATOM     38  C   UNL     1      21.704  -4.744 -21.877  1.00  0.00     0.283 C 
ATOM     39  N   UNL     1      20.986  -5.756 -21.065  1.00  0.00    -0.334 N 
ATOM     40  C   UNL     1      21.339  -7.105 -21.498  1.00  0.00     0.332 C 
ATOM     41  H   UNL     1      19.981  -5.639 -21.189  1.00  0.00     0.347 HD
ENDBRANCH  33  34
ENDBRANCH  27  28
ENDBRANCH   3  27
TORSDOF 6
ENDMDL
MODEL 5
REMARK VINA RESULT:   -10.389      3.139      5.028
REMARK INTER + INTRA:         -15.013
REMARK INTER:                 -14.202
REMARK INTRA:                  -0.811
REMARK UNBOUND:                -0.979
REMARK SMILES Cc1c(C(=O)N2CCc3ccc(C(=O)NCc4ccc(N5CC[NH+](C)CC5)cc4)nc3C2)oc2ccccc12
REMARK SMILES IDX 14 1 13 2 15 3 12 5 30 6 11 7 31 8 10 9 9 10 32 11 8 12 6 13
REMARK SMILES IDX 7 14 4 15 5 16 3 17 33 18 2 19 34 20 39 21 35 22 38 23 36 24
REMARK SMILES IDX 37 25 1 26 16 27 17 28 18 29 29 30 19 31 28 32 20 33 21 34
REMARK SMILES IDX 22 35 27 36 23 37 26 38 24 39 25 40
REMARK H PARENT 15 4 24 41
ROOT
ATOM      1  O   UNL     1      29.629   3.545 -16.175  1.00  0.00    -0.268 OA
ATOM      2  C   UNL     1      28.802   4.157 -16.825  1.00  0.00     0.270 C 
ATOM      3  N   UNL     1      29.093   5.307 -17.529  1.00  0.00    -0.347 N 
ATOM      4  H   UNL     1      28.375   5.734 -18.050  1.00  0.00     0.164 HD
ENDROOT
BRANCH   2   5
ATOM      5  C   UNL     1      27.362   3.685 -16.876  1.00  0.00     0.128 A 
ATOM      6  N   UNL     1      26.982   2.875 -17.909  1.00  0.00    -0.245 NA
ATOM      7  C   UNL     1      26.482   4.122 -15.889  1.00  0.00     0.034 A 
ATOM      8  C   UNL     1      25.669   2.490 -17.952  1.00  0.00     0.064 A 
ATOM      9  C   UNL     1      25.145   3.743 -15.963  1.00  0.00     0.008 A 
ATOM     10  C   UNL     1      24.717   2.923 -17.012  1.00  0.00    -0.023 A 
ATOM     11  C   UNL     1      25.244   1.578 -19.101  1.00  0.00     0.176 C 
ATOM     12  C   UNL     1      23.273   2.476 -17.076  1.00  0.00     0.059 C 
ATOM     13  N   UNL     1      23.944   0.938 -18.890  1.00  0.00    -0.330 N 
ATOM     14  C   UNL     1      22.895   1.825 -18.409  1.00  0.00     0.125 C 
BRANCH  13  15
ATOM     15  C   UNL     1      23.688  -0.323 -19.453  1.00  0.00     0.290 C 
ATOM     16  O   UNL     1      24.039  -1.352 -18.875  1.00  0.00    -0.265 OA
BRANCH  15  17
ATOM     17  C   UNL     1      22.796  -0.348 -20.636  1.00  0.00     0.195 A 
ATOM     18  O   UNL     1      21.555  -0.902 -20.335  1.00  0.00    -0.451 OA
ATOM     19  C   UNL     1      23.060  -0.803 -21.936  1.00  0.00     0.008 A 
ATOM     20  C   UNL     1      21.595  -2.119 -20.934  1.00  0.00     0.135 A 
ATOM     21  C   UNL     1      22.598  -2.146 -21.893  1.00  0.00     0.024 A 
ATOM     22  C   UNL     1      20.767  -3.190 -20.623  1.00  0.00     0.048 A 
ATOM     23  C   UNL     1      22.817  -3.324 -22.614  1.00  0.00     0.012 A 
ATOM     24  C   UNL     1      21.042  -4.369 -21.308  1.00  0.00     0.004 A 
ATOM     25  C   UNL     1      22.046  -4.446 -22.280  1.00  0.00     0.001 A 
ATOM     26  C   UNL     1      23.538  -0.108 -23.155  1.00  0.00     0.049 C 
ENDBRANCH  15  17
ENDBRANCH  13  15
ENDBRANCH   2   5
BRANCH   3  27
ATOM     27  C   UNL     1      30.411   5.919 -17.539  1.00  0.00     0.152 C 
BRANCH  27  28
ATOM     28  C   UNL     1      30.887   6.218 -18.940  1.00  0.00    -0.029 A 
ATOM     29  C   UNL     1      32.247   6.356 -19.239  1.00  0.00     0.008 A 
ATOM     30  C   UNL     1      29.962   6.332 -19.984  1.00  0.00     0.008 A 
ATOM     31  C   UNL     1      32.656   6.651 -20.545  1.00  0.00     0.026 A 
ATOM     32  C   UNL     1      30.381   6.623 -21.289  1.00  0.00     0.026 A 
ATOM     33  C   UNL     1      31.734   6.810 -21.590  1.00  0.00     0.037 A 
BRANCH  33  34
ATOM     34  N   UNL     1      32.210   7.105 -22.866  1.00  0.00    -0.360 N 
ATOM     35  C   UNL     1      31.259   7.534 -23.905  1.00  0.00     0.178 C 
ATOM     36  C   UNL     1      33.462   7.892 -22.902  1.00  0.00     0.178 C 
ATOM     37  C   UNL     1      31.932   7.393 -25.291  1.00  0.00     0.283 C 
ATOM     38  C   UNL     1      34.108   7.746 -24.302  1.00  0.00     0.283 C 
ATOM     39  N   UNL     1      33.196   8.163 -25.394  1.00  0.00    -0.334 N 
ATOM     40  C   UNL     1      33.821   7.950 -26.696  1.00  0.00     0.332 C 
ATOM     41  H   UNL     1      32.992   9.159 -25.302  1.00  0.00     0.347 HD
ENDBRANCH  33  34
ENDBRANCH  27  28
ENDBRANCH   3  27
TORSDOF 6
ENDMDL
