REMARK SMILES Cc1c(C(=O)N2CCc3ccc(C(=O)NCc4ccc(N5CC[NH+](C)CC5)cc4)nc3C2)oc2ccccc12
REMARK SMILES IDX 14 1 13 2 15 3 12 5 30 6 11 7 31 8 10 9 9 10 32 11 8 12 6 13
REMARK SMILES IDX 7 14 4 15 5 16 3 17 33 18 2 19 34 20 39 21 35 22 38 23 36 24
REMARK SMILES IDX 37 25 1 26 16 27 17 28 18 29 29 30 19 31 28 32 20 33 21 34
REMARK SMILES IDX 22 35 27 36 23 37 26 38 24 39 25 40
REMARK H PARENT 15 4 24 41
ROOT
ATOM      1  O   UNL     1       1.364  -0.619   0.242  1.00  0.00    -0.268 OA
ATOM      2  C   UNL     1       2.326   0.100   0.047  1.00  0.00     0.270 C 
ATOM      3  N   UNL     1       2.837   0.357  -1.209  1.00  0.00    -0.347 N 
ATOM      4  H   UNL     1       3.605   0.968  -1.288  1.00  0.00     0.164 HD
ENDROOT
BRANCH   2   5
ATOM      5  C   UNL     1       3.048   0.750   1.211  1.00  0.00     0.128 A 
ATOM      6  N   UNL     1       4.164   1.494   0.947  1.00  0.00    -0.245 NA
ATOM      7  C   UNL     1       2.565   0.535   2.499  1.00  0.00     0.034 A 
ATOM      8  C   UNL     1       4.818   2.043   2.017  1.00  0.00     0.064 A 
ATOM      9  C   UNL     1       3.257   1.078   3.578  1.00  0.00     0.008 A 
ATOM     10  C   UNL     1       4.409   1.836   3.347  1.00  0.00    -0.023 A 
ATOM     11  C   UNL     1       6.060   2.882   1.724  1.00  0.00     0.176 C 
ATOM     12  C   UNL     1       5.144   2.461   4.512  1.00  0.00     0.059 C 
ATOM     13  N   UNL     1       6.490   3.705   2.855  1.00  0.00    -0.330 N 
ATOM     14  C   UNL     1       6.520   3.018   4.138  1.00  0.00     0.125 C 
BRANCH  13  15
ATOM     15  C   UNL     1       7.145   4.926   2.620  1.00  0.00     0.290 C 
ATOM     16  O   UNL     1       7.584   5.198   1.502  1.00  0.00    -0.265 OA
BRANCH  15  17
ATOM     17  C   UNL     1       7.076   5.931   3.707  1.00  0.00     0.195 A 
ATOM     18  O   UNL     1       5.902   5.813   4.445  1.00  0.00    -0.451 OA
ATOM     19  C   UNL     1       7.300   7.314   3.651  1.00  0.00     0.008 A 
ATOM     20  C   UNL     1       5.170   6.886   4.053  1.00  0.00     0.135 A 
ATOM     21  C   UNL     1       5.991   7.830   3.453  1.00  0.00     0.024 A 
ATOM     22  C   UNL     1       3.796   7.016   4.211  1.00  0.00     0.048 A 
ATOM     23  C   UNL     1       5.423   9.009   2.959  1.00  0.00     0.012 A 
ATOM     24  C   UNL     1       3.243   8.167   3.659  1.00  0.00     0.004 A 
ATOM     25  C   UNL     1       4.030   9.145   3.040  1.00  0.00     0.001 A 
ATOM     26  C   UNL     1       8.511   8.136   3.885  1.00  0.00     0.049 C 
ENDBRANCH  15  17
ENDBRANCH  13  15
ENDBRANCH   2   5
BRANCH   3  27
ATOM     27  C   UNL     1       2.294  -0.231  -2.422  1.00  0.00     0.152 C 
BRANCH  27  28
ATOM     28  C   UNL     1       1.864   0.818  -3.418  1.00  0.00    -0.029 A 
ATOM     29  C   UNL     1       2.464   0.925  -4.677  1.00  0.00     0.008 A 
ATOM     30  C   UNL     1       0.819   1.695  -3.104  1.00  0.00     0.008 A 
ATOM     31  C   UNL     1       2.055   1.920  -5.572  1.00  0.00     0.026 A 
ATOM     32  C   UNL     1       0.413   2.685  -4.008  1.00  0.00     0.026 A 
ATOM     33  C   UNL     1       1.038   2.831  -5.250  1.00  0.00     0.037 A 
BRANCH  33  34
ATOM     34  N   UNL     1       0.682   3.798  -6.188  1.00  0.00    -0.360 N 
ATOM     35  C   UNL     1      -0.688   4.338  -6.176  1.00  0.00     0.178 C 
ATOM     36  C   UNL     1       1.692   4.855  -6.415  1.00  0.00     0.178 C 
ATOM     37  C   UNL     1      -0.960   5.049  -7.523  1.00  0.00     0.283 C 
ATOM     38  C   UNL     1       1.390   5.559  -7.761  1.00  0.00     0.283 C 
ATOM     39  N   UNL     1       0.020   6.125  -7.810  1.00  0.00    -0.334 N 
ATOM     40  C   UNL     1      -0.242   6.722  -9.116  1.00  0.00     0.332 C 
ATOM     41  H   UNL     1      -0.068   6.858  -7.106  1.00  0.00     0.347 HD
ENDBRANCH  33  34
ENDBRANCH  27  28
ENDBRANCH   3  27
TORSDOF 6
