MODEL 1
REMARK VINA RESULT:   -11.139      0.000      0.000
REMARK INTER + INTRA:         -15.049
REMARK INTER:                 -14.395
REMARK INTRA:                  -0.654
REMARK UNBOUND:                -0.654
REMARK  Name = CTX-1020742
REMARK  7 active torsions:
REMARK  status: ('A' for Active; 'I' for Inactive)
REMARK    1  A    between atoms: C_2  and  C_5
REMARK    2  A    between atoms: C_4  and  C_8
REMARK    3  A    between atoms: C_21  and  C_22
REMARK    4  A    between atoms: N_24  and  C_25
REMARK    5  A    between atoms: C_25  and  C_26
REMARK    6  A    between atoms: C_31  and  N_32
REMARK    7  A    between atoms: N_37  and  C_38
REMARK                            x       y       z     vdW  Elec       q    Type
REMARK                         _______ _______ _______ _____ _____    ______ ____
ROOT
ATOM      1  C   UNL     1      24.487   0.396 -20.531  0.00  0.00    +0.254 C 
ATOM      2  O   UNL     1      24.926  -0.042 -19.449  0.00  0.00    -0.269 OA
ATOM      3  N   UNL     1      25.438   1.283 -21.262  0.00  0.00    -0.292 N 
ATOM      4  C   UNL     1      25.755   2.022 -22.715  0.00  0.00    +0.144 C 
ATOM      5  C   UNL     1      26.294   1.760 -20.204  0.00  0.00    +0.113 C 
ATOM      6  C   UNL     1      27.226   2.801 -22.740  0.00  0.00    -0.019 A 
ATOM      7  C   UNL     1      27.713   2.052 -20.468  0.00  0.00    +0.062 C 
ATOM      8  C   UNL     1      28.120   2.395 -21.798  0.00  0.00    -0.003 A 
ATOM      9  C   UNL     1      27.913   4.071 -23.246  0.00  0.00    +0.026 A 
ATOM     10  S   UNL     1      29.728   2.892 -21.987  0.00  0.00    -0.088 S 
ATOM     11  C   UNL     1      29.045   4.405 -22.427  0.00  0.00    +0.074 A 
ENDROOT
BRANCH   1  13
ATOM     12  S   UNL     1      22.703  -1.713 -20.998  0.00  0.00    -0.082 S 
ATOM     13  C   UNL     1      23.091  -0.079 -20.650  0.00  0.00    +0.078 A 
ATOM     14  C   UNL     1      21.362  -1.773 -19.881  0.00  0.00    +0.038 A 
ATOM     15  C   UNL     1      22.091   0.459 -19.781  0.00  0.00    -0.023 A 
ATOM     16  C   UNL     1      21.132  -0.524 -19.309  0.00  0.00    -0.004 A 
ATOM     17  C   UNL     1      20.569  -2.871 -19.508  0.00  0.00    +0.126 A 
ATOM     18  C   UNL     1      22.143   1.801 -19.069  0.00  0.00    +0.046 C 
ATOM     19  C   UNL     1      20.125  -0.414 -18.315  0.00  0.00    +0.029 A 
ATOM     20  N   UNL     1      19.568  -2.731 -18.602  0.00  0.00    -0.262 NA
ATOM     21  C   UNL     1      19.379  -1.537 -18.018  0.00  0.00    +0.111 A 
ENDBRANCH   1  13
BRANCH  11  22
ATOM     22  C   UNL     1      29.811   5.570 -21.926  0.00  0.00    +0.251 C 
ATOM     23  O   UNL     1      29.814   5.964 -20.755  0.00  0.00    -0.270 OA
ATOM     24  N   UNL     1      30.501   6.253 -22.949  0.00  0.00    -0.307 N 
ATOM     25  H   UNL     1      30.602   5.774 -23.802  0.00  0.00    +0.149 HD
BRANCH  24  26
ATOM     26  C   UNL     1      31.083   7.598 -22.884  0.00  0.00    +0.139 C 
BRANCH  26  27
ATOM     27  C   UNL     1      32.201   7.776 -23.927  0.00  0.00    -0.030 A 
ATOM     28  C   UNL     1      33.538   7.898 -23.548  0.00  0.00    +0.007 A 
ATOM     29  C   UNL     1      31.944   7.714 -25.326  0.00  0.00    +0.007 A 
ATOM     30  C   UNL     1      34.575   8.110 -24.496  0.00  0.00    +0.023 A 
ATOM     31  C   UNL     1      32.993   7.923 -26.249  0.00  0.00    +0.023 A 
ATOM     32  C   UNL     1      34.319   8.215 -25.877  0.00  0.00    +0.030 A 
BRANCH  32  33
ATOM     33  N   UNL     1      35.310   8.577 -26.783  0.00  0.00    -0.333 N 
ATOM     34  C   UNL     1      35.088   8.837 -28.222  0.00  0.00    +0.086 C 
ATOM     35  C   UNL     1      36.695   8.843 -26.346  0.00  0.00    +0.086 C 
ATOM     36  C   UNL     1      36.148   8.101 -29.087  0.00  0.00    -0.060 C 
ATOM     37  C   UNL     1      37.717   8.128 -27.272  0.00  0.00    -0.060 C 
ATOM     38  N   UNL     1      37.532   8.459 -28.702  0.00  0.00    +0.380 N 
ATOM     39  C   UNL     1      38.510   7.762 -29.534  0.00  0.00    -0.096 C 
ATOM     40  H   UNL     1      37.679   9.458 -28.847  0.00  0.00    -0.082 HD
ENDBRANCH  32  33
ENDBRANCH  26  27
ENDBRANCH  24  26
ENDBRANCH  11  22
TORSDOF 5
ENDMDL
MODEL 2
REMARK VINA RESULT:   -10.788      3.496      4.848
REMARK INTER + INTRA:         -14.595
REMARK INTER:                 -14.244
REMARK INTRA:                  -0.351
REMARK UNBOUND:                -0.654
REMARK  Name = CTX-1020742
REMARK  7 active torsions:
REMARK  status: ('A' for Active; 'I' for Inactive)
REMARK    1  A    between atoms: C_2  and  C_5
REMARK    2  A    between atoms: C_4  and  C_8
REMARK    3  A    between atoms: C_21  and  C_22
REMARK    4  A    between atoms: N_24  and  C_25
REMARK    5  A    between atoms: C_25  and  C_26
REMARK    6  A    between atoms: C_31  and  N_32
REMARK    7  A    between atoms: N_37  and  C_38
REMARK                            x       y       z     vdW  Elec       q    Type
REMARK                         _______ _______ _______ _____ _____    ______ ____
ROOT
ATOM      1  C   UNL     1      22.654   2.573 -15.684  0.00  0.00    +0.254 C 
ATOM      2  O   UNL     1      22.694   2.794 -14.458  0.00  0.00    -0.269 OA
ATOM      3  N   UNL     1      23.994   2.463 -16.331  0.00  0.00    -0.292 N 
ATOM      4  C   UNL     1      24.799   1.994 -17.704  0.00  0.00    +0.144 C 
ATOM      5  C   UNL     1      24.839   3.199 -15.422  0.00  0.00    +0.113 C 
ATOM      6  C   UNL     1      26.455   2.084 -17.550  0.00  0.00    -0.019 A 
ATOM      7  C   UNL     1      26.244   2.805 -15.227  0.00  0.00    +0.062 C 
ATOM      8  C   UNL     1      26.924   2.100 -16.273  0.00  0.00    -0.003 A 
ATOM      9  C   UNL     1      27.721   2.471 -18.316  0.00  0.00    +0.026 A 
ATOM     10  S   UNL     1      28.582   1.843 -16.050  0.00  0.00    -0.088 S 
ATOM     11  C   UNL     1      28.766   2.870 -17.414  0.00  0.00    +0.074 A 
ENDROOT
BRANCH   1  13
ATOM     12  S   UNL     1      20.706   3.074 -17.635  0.00  0.00    -0.082 S 
ATOM     13  C   UNL     1      21.226   2.589 -16.075  0.00  0.00    +0.078 A 
ATOM     14  C   UNL     1      19.489   1.829 -17.763  0.00  0.00    +0.038 A 
ATOM     15  C   UNL     1      20.358   1.559 -15.596  0.00  0.00    -0.023 A 
ATOM     16  C   UNL     1      19.396   1.097 -16.581  0.00  0.00    -0.004 A 
ATOM     17  C   UNL     1      18.674   1.496 -18.858  0.00  0.00    +0.126 A 
ATOM     18  C   UNL     1      20.565   0.711 -14.353  0.00  0.00    +0.046 C 
ATOM     19  C   UNL     1      18.507  -0.009 -16.542  0.00  0.00    +0.029 A 
ATOM     20  N   UNL     1      17.784   0.474 -18.778  0.00  0.00    -0.262 NA
ATOM     21  C   UNL     1      17.730  -0.258 -17.655  0.00  0.00    +0.111 A 
ENDBRANCH   1  13
BRANCH  11  22
ATOM     22  C   UNL     1      29.929   3.783 -17.317  0.00  0.00    +0.251 C 
ATOM     23  O   UNL     1      30.837   3.686 -16.484  0.00  0.00    -0.270 OA
ATOM     24  N   UNL     1      29.870   4.845 -18.242  0.00  0.00    -0.307 N 
ATOM     25  H   UNL     1      29.230   4.744 -18.983  0.00  0.00    +0.149 HD
BRANCH  24  26
ATOM     26  C   UNL     1      30.654   6.085 -18.224  0.00  0.00    +0.139 C 
BRANCH  26  27
ATOM     27  C   UNL     1      31.113   6.480 -19.639  0.00  0.00    -0.030 A 
ATOM     28  C   UNL     1      32.466   6.602 -19.958  0.00  0.00    +0.007 A 
ATOM     29  C   UNL     1      30.194   6.628 -20.716  0.00  0.00    +0.007 A 
ATOM     30  C   UNL     1      32.903   7.011 -21.247  0.00  0.00    +0.023 A 
ATOM     31  C   UNL     1      30.654   7.031 -21.989  0.00  0.00    +0.023 A 
ATOM     32  C   UNL     1      32.000   7.323 -22.282  0.00  0.00    +0.030 A 
BRANCH  32  33
ATOM     33  N   UNL     1      32.425   7.870 -23.487  0.00  0.00    -0.333 N 
ATOM     34  C   UNL     1      31.637   7.875 -24.740  0.00  0.00    +0.086 C 
ATOM     35  C   UNL     1      33.698   8.612 -23.593  0.00  0.00    +0.086 C 
ATOM     36  C   UNL     1      32.508   7.415 -25.942  0.00  0.00    -0.060 C 
ATOM     37  C   UNL     1      34.506   8.152 -24.838  0.00  0.00    -0.060 C 
ATOM     38  N   UNL     1      33.730   8.237 -26.094  0.00  0.00    +0.380 N 
ATOM     39  C   UNL     1      34.527   7.793 -27.236  0.00  0.00    -0.096 C 
ATOM     40  H   UNL     1      33.470   9.207 -26.275  0.00  0.00    -0.082 HD
ENDBRANCH  32  33
ENDBRANCH  26  27
ENDBRANCH  24  26
ENDBRANCH  11  22
TORSDOF 5
ENDMDL
MODEL 3
REMARK VINA RESULT:   -10.211      3.433     12.721
REMARK INTER + INTRA:         -13.849
REMARK INTER:                 -13.459
REMARK INTRA:                  -0.391
REMARK UNBOUND:                -0.654
REMARK  Name = CTX-1020742
REMARK  7 active torsions:
REMARK  status: ('A' for Active; 'I' for Inactive)
REMARK    1  A    between atoms: C_2  and  C_5
REMARK    2  A    between atoms: C_4  and  C_8
REMARK    3  A    between atoms: C_21  and  C_22
REMARK    4  A    between atoms: N_24  and  C_25
REMARK    5  A    between atoms: C_25  and  C_26
REMARK    6  A    between atoms: C_31  and  N_32
REMARK    7  A    between atoms: N_37  and  C_38
REMARK                            x       y       z     vdW  Elec       q    Type
REMARK                         _______ _______ _______ _____ _____    ______ ____
ROOT
ATOM      1  C   UNL     1      31.418   6.283 -21.038  0.00  0.00    +0.254 C 
ATOM      2  O   UNL     1      31.884   5.218 -21.488  0.00  0.00    -0.269 OA
ATOM      3  N   UNL     1      30.650   6.126 -19.768  0.00  0.00    -0.292 N 
ATOM      4  C   UNL     1      29.973   6.936 -18.487  0.00  0.00    +0.144 C 
ATOM      5  C   UNL     1      30.252   4.740 -19.816  0.00  0.00    +0.113 C 
ATOM      6  C   UNL     1      29.357   5.915 -17.325  0.00  0.00    -0.019 A 
ATOM      7  C   UNL     1      30.119   3.961 -18.574  0.00  0.00    +0.062 C 
ATOM      8  C   UNL     1      29.842   4.644 -17.346  0.00  0.00    -0.003 A 
ATOM      9  C   UNL     1      28.177   5.747 -16.367  0.00  0.00    +0.026 A 
ATOM     10  S   UNL     1      29.525   3.669 -15.999  0.00  0.00    -0.088 S 
ATOM     11  C   UNL     1      27.954   4.360 -16.063  0.00  0.00    +0.074 A 
ENDROOT
BRANCH   1  13
ATOM     12  S   UNL     1      33.220   8.209 -21.982  0.00  0.00    -0.082 S 
ATOM     13  C   UNL     1      31.742   7.341 -22.021  0.00  0.00    +0.078 A 
ATOM     14  C   UNL     1      33.421   8.207 -23.716  0.00  0.00    +0.038 A 
ATOM     15  C   UNL     1      31.333   7.182 -23.382  0.00  0.00    -0.023 A 
ATOM     16  C   UNL     1      32.317   7.638 -24.347  0.00  0.00    -0.004 A 
ATOM     17  C   UNL     1      34.508   8.661 -24.483  0.00  0.00    +0.126 A 
ATOM     18  C   UNL     1      30.193   6.312 -23.885  0.00  0.00    +0.046 C 
ATOM     19  C   UNL     1      32.353   7.485 -25.758  0.00  0.00    +0.029 A 
ATOM     20  N   UNL     1      34.494   8.564 -25.836  0.00  0.00    -0.262 NA
ATOM     21  C   UNL     1      33.450   7.973 -26.437  0.00  0.00    +0.111 A 
ENDBRANCH   1  13
BRANCH  11  22
ATOM     22  C   UNL     1      26.871   3.404 -15.738  0.00  0.00    +0.251 C 
ATOM     23  O   UNL     1      27.042   2.274 -15.268  0.00  0.00    -0.270 OA
ATOM     24  N   UNL     1      25.592   3.883 -16.088  0.00  0.00    -0.307 N 
ATOM     25  H   UNL     1      25.523   4.848 -16.273  0.00  0.00    +0.149 HD
BRANCH  24  26
ATOM     26  C   UNL     1      24.353   3.107 -16.209  0.00  0.00    +0.139 C 
BRANCH  26  27
ATOM     27  C   UNL     1      24.353   2.245 -17.485  0.00  0.00    -0.030 A 
ATOM     28  C   UNL     1      25.487   2.136 -18.290  0.00  0.00    +0.007 A 
ATOM     29  C   UNL     1      23.241   1.433 -17.845  0.00  0.00    +0.007 A 
ATOM     30  C   UNL     1      25.487   1.382 -19.494  0.00  0.00    +0.023 A 
ATOM     31  C   UNL     1      23.268   0.688 -19.045  0.00  0.00    +0.023 A 
ATOM     32  C   UNL     1      24.343   0.701 -19.954  0.00  0.00    +0.030 A 
BRANCH  32  33
ATOM     33  N   UNL     1      24.301   0.097 -21.205  0.00  0.00    -0.333 N 
ATOM     34  C   UNL     1      25.123   0.497 -22.368  0.00  0.00    +0.086 C 
ATOM     35  C   UNL     1      23.479  -1.105 -21.455  0.00  0.00    +0.086 C 
ATOM     36  C   UNL     1      24.250   0.616 -23.648  0.00  0.00    -0.060 C 
ATOM     37  C   UNL     1      22.666  -0.958 -22.771  0.00  0.00    -0.060 C 
ATOM     38  N   UNL     1      23.513  -0.634 -23.940  0.00  0.00    +0.380 N 
ATOM     39  C   UNL     1      22.707  -0.503 -25.152  0.00  0.00    -0.096 C 
ATOM     40  H   UNL     1      24.175  -1.392 -24.107  0.00  0.00    -0.082 HD
ENDBRANCH  32  33
ENDBRANCH  26  27
ENDBRANCH  24  26
ENDBRANCH  11  22
TORSDOF 5
ENDMDL
MODEL 4
REMARK VINA RESULT:   -10.197      2.996      4.593
REMARK INTER + INTRA:         -13.831
REMARK INTER:                 -13.232
REMARK INTRA:                  -0.599
REMARK UNBOUND:                -0.654
REMARK  Name = CTX-1020742
REMARK  7 active torsions:
REMARK  status: ('A' for Active; 'I' for Inactive)
REMARK    1  A    between atoms: C_2  and  C_5
REMARK    2  A    between atoms: C_4  and  C_8
REMARK    3  A    between atoms: C_21  and  C_22
REMARK    4  A    between atoms: N_24  and  C_25
REMARK    5  A    between atoms: C_25  and  C_26
REMARK    6  A    between atoms: C_31  and  N_32
REMARK    7  A    between atoms: N_37  and  C_38
REMARK                            x       y       z     vdW  Elec       q    Type
REMARK                         _______ _______ _______ _____ _____    ______ ____
ROOT
ATOM      1  C   UNL     1      23.838   0.966 -19.455  0.00  0.00    +0.254 C 
ATOM      2  O   UNL     1      23.132   1.987 -19.333  0.00  0.00    -0.269 OA
ATOM      3  N   UNL     1      25.147   1.039 -18.743  0.00  0.00    -0.292 N 
ATOM      4  C   UNL     1      26.452   0.159 -18.217  0.00  0.00    +0.144 C 
ATOM      5  C   UNL     1      25.364   2.461 -18.638  0.00  0.00    +0.113 C 
ATOM      6  C   UNL     1      27.517   1.057 -17.305  0.00  0.00    -0.019 A 
ATOM      7  C   UNL     1      26.078   3.022 -17.479  0.00  0.00    +0.062 C 
ATOM      8  C   UNL     1      27.008   2.198 -16.765  0.00  0.00    -0.003 A 
ATOM      9  C   UNL     1      29.010   1.273 -17.054  0.00  0.00    +0.026 A 
ATOM     10  S   UNL     1      27.921   2.964 -15.562  0.00  0.00    -0.088 S 
ATOM     11  C   UNL     1      29.264   2.602 -16.570  0.00  0.00    +0.074 A 
ENDROOT
BRANCH   1  13
ATOM     12  S   UNL     1      23.918  -0.832 -21.602  0.00  0.00    -0.082 S 
ATOM     13  C   UNL     1      23.117   0.055 -20.372  0.00  0.00    +0.078 A 
ATOM     14  C   UNL     1      22.980  -2.284 -21.351  0.00  0.00    +0.038 A 
ATOM     15  C   UNL     1      22.028  -0.725 -19.872  0.00  0.00    -0.023 A 
ATOM     16  C   UNL     1      21.982  -2.076 -20.402  0.00  0.00    -0.004 A 
ATOM     17  C   UNL     1      23.132  -3.550 -21.941  0.00  0.00    +0.126 A 
ATOM     18  C   UNL     1      21.180  -0.410 -18.651  0.00  0.00    +0.046 C 
ATOM     19  C   UNL     1      21.176  -3.181 -20.019  0.00  0.00    +0.029 A 
ATOM     20  N   UNL     1      22.310  -4.576 -21.609  0.00  0.00    -0.262 NA
ATOM     21  C   UNL     1      21.379  -4.386 -20.661  0.00  0.00    +0.111 A 
ENDBRANCH   1  13
BRANCH  11  22
ATOM     22  C   UNL     1      30.287   3.673 -16.602  0.00  0.00    +0.251 C 
ATOM     23  O   UNL     1      31.284   3.721 -15.874  0.00  0.00    -0.270 OA
ATOM     24  N   UNL     1      29.976   4.701 -17.515  0.00  0.00    -0.307 N 
ATOM     25  H   UNL     1      29.280   4.498 -18.182  0.00  0.00    +0.149 HD
BRANCH  24  26
ATOM     26  C   UNL     1      30.571   6.040 -17.584  0.00  0.00    +0.139 C 
BRANCH  26  27
ATOM     27  C   UNL     1      30.947   6.414 -19.030  0.00  0.00    -0.030 A 
ATOM     28  C   UNL     1      32.278   6.529 -19.429  0.00  0.00    +0.007 A 
ATOM     29  C   UNL     1      29.966   6.549 -20.053  0.00  0.00    +0.007 A 
ATOM     30  C   UNL     1      32.640   6.918 -20.746  0.00  0.00    +0.023 A 
ATOM     31  C   UNL     1      30.352   6.932 -21.357  0.00  0.00    +0.023 A 
ATOM     32  C   UNL     1      31.679   7.217 -21.732  0.00  0.00    +0.030 A 
BRANCH  32  33
ATOM     33  N   UNL     1      32.032   7.747 -22.967  0.00  0.00    -0.333 N 
ATOM     34  C   UNL     1      31.190   7.698 -24.182  0.00  0.00    +0.086 C 
ATOM     35  C   UNL     1      33.277   8.521 -23.148  0.00  0.00    +0.086 C 
ATOM     36  C   UNL     1      32.020   7.234 -25.412  0.00  0.00    -0.060 C 
ATOM     37  C   UNL     1      34.042   8.055 -24.417  0.00  0.00    -0.060 C 
ATOM     38  N   UNL     1      33.209   8.086 -25.638  0.00  0.00    +0.380 N 
ATOM     39  C   UNL     1      33.968   7.637 -26.804  0.00  0.00    -0.096 C 
ATOM     40  H   UNL     1      32.913   9.043 -25.830  0.00  0.00    -0.082 HD
ENDBRANCH  32  33
ENDBRANCH  26  27
ENDBRANCH  24  26
ENDBRANCH  11  22
TORSDOF 5
ENDMDL
MODEL 5
REMARK VINA RESULT:    -9.673      3.023     14.267
REMARK INTER + INTRA:         -13.154
REMARK INTER:                 -13.363
REMARK INTRA:                   0.208
REMARK UNBOUND:                -0.654
REMARK  Name = CTX-1020742
REMARK  7 active torsions:
REMARK  status: ('A' for Active; 'I' for Inactive)
REMARK    1  A    between atoms: C_2  and  C_5
REMARK    2  A    between atoms: C_4  and  C_8
REMARK    3  A    between atoms: C_21  and  C_22
REMARK    4  A    between atoms: N_24  and  C_25
REMARK    5  A    between atoms: C_25  and  C_26
REMARK    6  A    between atoms: C_31  and  N_32
REMARK    7  A    between atoms: N_37  and  C_38
REMARK                            x       y       z     vdW  Elec       q    Type
REMARK                         _______ _______ _______ _____ _____    ______ ____
ROOT
ATOM      1  C   UNL     1      31.931   7.373 -23.677  0.00  0.00    +0.254 C 
ATOM      2  O   UNL     1      31.037   6.952 -24.437  0.00  0.00    -0.269 OA
ATOM      3  N   UNL     1      31.752   6.985 -22.248  0.00  0.00    -0.292 N 
ATOM      4  C   UNL     1      32.493   6.904 -20.765  0.00  0.00    +0.144 C 
ATOM      5  C   UNL     1      30.333   6.742 -22.167  0.00  0.00    +0.113 C 
ATOM      6  C   UNL     1      31.556   6.154 -19.610  0.00  0.00    -0.019 A 
ATOM      7  C   UNL     1      29.803   5.719 -21.252  0.00  0.00    +0.062 C 
ATOM      8  C   UNL     1      30.560   5.361 -20.089  0.00  0.00    -0.003 A 
ATOM      9  C   UNL     1      31.163   6.235 -18.134  0.00  0.00    +0.026 A 
ATOM     10  S   UNL     1      29.806   4.314 -18.994  0.00  0.00    -0.088 S 
ATOM     11  C   UNL     1      29.870   5.648 -17.914  0.00  0.00    +0.074 A 
ENDROOT
BRANCH   1  13
ATOM     12  S   UNL     1      34.296   8.860 -23.889  0.00  0.00    -0.082 S 
ATOM     13  C   UNL     1      32.832   8.210 -24.500  0.00  0.00    +0.078 A 
ATOM     14  C   UNL     1      35.197   8.561 -25.354  0.00  0.00    +0.038 A 
ATOM     15  C   UNL     1      33.006   7.900 -25.885  0.00  0.00    -0.023 A 
ATOM     16  C   UNL     1      34.370   8.060 -26.357  0.00  0.00    -0.004 A 
ATOM     17  C   UNL     1      36.570   8.734 -25.601  0.00  0.00    +0.126 A 
ATOM     18  C   UNL     1      32.035   7.130 -26.765  0.00  0.00    +0.046 C 
ATOM     19  C   UNL     1      34.960   7.686 -27.593  0.00  0.00    +0.029 A 
ATOM     20  N   UNL     1      37.103   8.431 -26.812  0.00  0.00    -0.262 NA
ATOM     21  C   UNL     1      36.312   7.905 -27.760  0.00  0.00    +0.111 A 
ENDBRANCH   1  13
BRANCH  11  22
ATOM     22  C   UNL     1      28.670   5.774 -17.054  0.00  0.00    +0.251 C 
ATOM     23  O   UNL     1      28.348   6.793 -16.434  0.00  0.00    -0.270 OA
ATOM     24  N   UNL     1      27.945   4.570 -16.946  0.00  0.00    -0.307 N 
ATOM     25  H   UNL     1      28.153   3.874 -17.610  0.00  0.00    +0.149 HD
BRANCH  24  26
ATOM     26  C   UNL     1      26.915   4.238 -15.955  0.00  0.00    +0.139 C 
BRANCH  26  27
ATOM     27  C   UNL     1      25.816   3.348 -16.564  0.00  0.00    -0.030 A 
ATOM     28  C   UNL     1      26.054   2.569 -17.697  0.00  0.00    +0.007 A 
ATOM     29  C   UNL     1      24.545   3.189 -15.943  0.00  0.00    +0.007 A 
ATOM     30  C   UNL     1      25.037   1.780 -18.297  0.00  0.00    +0.023 A 
ATOM     31  C   UNL     1      23.552   2.394 -16.557  0.00  0.00    +0.023 A 
ATOM     32  C   UNL     1      23.723   1.737 -17.790  0.00  0.00    +0.030 A 
BRANCH  32  33
ATOM     33  N   UNL     1      22.695   1.090 -18.467  0.00  0.00    -0.333 N 
ATOM     34  C   UNL     1      21.252   1.320 -18.235  0.00  0.00    +0.086 C 
ATOM     35  C   UNL     1      22.969   0.165 -19.585  0.00  0.00    +0.086 C 
ATOM     36  C   UNL     1      20.491  -0.029 -18.106  0.00  0.00    -0.060 C 
ATOM     37  C   UNL     1      22.146  -1.144 -19.437  0.00  0.00    -0.060 C 
ATOM     38  N   UNL     1      20.695  -0.901 -19.285  0.00  0.00    +0.380 N 
ATOM     39  C   UNL     1      19.963  -2.158 -19.145  0.00  0.00    -0.096 C 
ATOM     40  H   UNL     1      20.333  -0.440 -20.119  0.00  0.00    -0.082 HD
ENDBRANCH  32  33
ENDBRANCH  26  27
ENDBRANCH  24  26
ENDBRANCH  11  22
TORSDOF 5
ENDMDL
