MODEL 1
REMARK VINA RESULT:   -11.907      0.000      0.000
REMARK INTER + INTRA:         -16.328
REMARK INTER:                 -15.387
REMARK INTRA:                  -0.941
REMARK UNBOUND:                -0.941
REMARK  Name = CTX-1020743
REMARK  8 active torsions:
REMARK  status: ('A' for Active; 'I' for Inactive)
REMARK    1  A    between atoms: C_2  and  C_4
REMARK    2  A    between atoms: N_9  and  C_12
REMARK    3  A    between atoms: C_12  and  C_14
REMARK    4  A    between atoms: C_15  and  C_19
REMARK    5  A    between atoms: C_23  and  C_27
REMARK    6  A    between atoms: C_24  and  N_28
REMARK    7  A    between atoms: C_33  and  C_37
REMARK    8  A    between atoms: N_38  and  C_39
REMARK                            x       y       z     vdW  Elec       q    Type
REMARK                         _______ _______ _______ _____ _____    ______ ____
ROOT
ATOM      1  S   UNL     1      28.313   5.137 -23.831  0.00  0.00    -0.088 S 
ATOM      2  C   UNL     1      29.390   5.033 -22.501  0.00  0.00    +0.074 A 
ATOM      3  C   UNL     1      27.596   3.637 -23.460  0.00  0.00    -0.003 A 
ATOM      4  C   UNL     1      29.193   3.845 -21.805  0.00  0.00    +0.026 A 
ATOM      5  C   UNL     1      28.153   3.022 -22.354  0.00  0.00    -0.019 A 
ATOM      6  C   UNL     1      26.445   3.083 -24.240  0.00  0.00    +0.062 C 
ATOM      7  C   UNL     1      27.684   1.677 -21.837  0.00  0.00    +0.144 C 
ATOM      8  C   UNL     1      26.220   1.610 -23.864  0.00  0.00    +0.113 C 
ATOM      9  N   UNL     1      26.385   1.352 -22.430  0.00  0.00    -0.290 N 
ATOM     10  C   UNL     1      25.466   0.593 -21.699  0.00  0.00    +0.283 C 
ATOM     11  O   UNL     1      25.836  -0.177 -20.812  0.00  0.00    -0.267 OA
ENDROOT
BRANCH  10  12
ATOM     12  C   UNL     1      24.054   0.993 -21.857  0.00  0.00    +0.194 A 
ATOM     13  O   UNL     1      23.683   2.067 -21.067  0.00  0.00    -0.450 OA
ATOM     14  C   UNL     1      22.923   0.176 -21.953  0.00  0.00    +0.008 A 
ATOM     15  C   UNL     1      22.863   1.500 -20.145  0.00  0.00    +0.136 A 
ATOM     16  C   UNL     1      22.395   0.287 -20.629  0.00  0.00    +0.024 A 
ATOM     17  C   UNL     1      22.549  -0.839 -22.965  0.00  0.00    +0.048 C 
ATOM     18  C   UNL     1      22.647   1.996 -18.872  0.00  0.00    +0.050 A 
ATOM     19  C   UNL     1      21.649  -0.531 -19.767  0.00  0.00    +0.012 A 
ATOM     20  C   UNL     1      22.013   1.118 -17.987  0.00  0.00    -0.047 A 
ATOM     21  C   UNL     1      21.526  -0.126 -18.431  0.00  0.00    +0.004 A 
ATOM     22  C   UNL     1      21.927   1.471 -16.529  0.00  0.00    +0.044 C 
ENDBRANCH  10  12
BRANCH   2  23
ATOM     23  C   UNL     1      30.369   6.075 -22.187  0.00  0.00    +0.251 C 
ATOM     24  O   UNL     1      31.242   5.899 -21.335  0.00  0.00    -0.270 OA
ATOM     25  N   UNL     1      30.266   7.269 -22.869  0.00  0.00    -0.307 N 
ATOM     26  H   UNL     1      29.535   7.377 -23.520  0.00  0.00    +0.149 HD
BRANCH  25  27
ATOM     27  C   UNL     1      31.186   8.373 -22.672  0.00  0.00    +0.139 C 
BRANCH  27  28
ATOM     28  C   UNL     1      32.301   8.363 -23.687  0.00  0.00    -0.030 A 
ATOM     29  C   UNL     1      32.094   7.803 -24.952  0.00  0.00    +0.007 A 
ATOM     30  C   UNL     1      33.548   8.948 -23.424  0.00  0.00    +0.007 A 
ATOM     31  C   UNL     1      33.111   7.806 -25.906  0.00  0.00    +0.023 A 
ATOM     32  C   UNL     1      34.567   8.947 -24.395  0.00  0.00    +0.023 A 
ATOM     33  C   UNL     1      34.377   8.357 -25.649  0.00  0.00    +0.030 A 
BRANCH  33  34
ATOM     34  N   UNL     1      35.333   8.317 -26.652  0.00  0.00    -0.333 N 
ATOM     35  C   UNL     1      35.039   8.768 -28.023  0.00  0.00    +0.086 C 
ATOM     36  C   UNL     1      36.707   8.668 -26.234  0.00  0.00    +0.086 C 
ATOM     37  C   UNL     1      36.084   8.144 -28.993  0.00  0.00    -0.060 C 
ATOM     38  C   UNL     1      37.718   8.032 -27.214  0.00  0.00    -0.060 C 
ATOM     39  N   UNL     1      37.487   8.454 -28.615  0.00  0.00    +0.380 N 
ATOM     40  C   UNL     1      38.428   7.779 -29.507  0.00  0.00    -0.096 C 
ATOM     41  H   UNL     1      37.639   9.459 -28.700  0.00  0.00    -0.082 HD
ENDBRANCH  33  34
ENDBRANCH  27  28
ENDBRANCH  25  27
ENDBRANCH   2  23
TORSDOF 5
ENDMDL
MODEL 2
REMARK VINA RESULT:   -11.415      4.301      7.074
REMARK INTER + INTRA:         -15.693
REMARK INTER:                 -14.789
REMARK INTRA:                  -0.904
REMARK UNBOUND:                -0.941
REMARK  Name = CTX-1020743
REMARK  8 active torsions:
REMARK  status: ('A' for Active; 'I' for Inactive)
REMARK    1  A    between atoms: C_2  and  C_4
REMARK    2  A    between atoms: N_9  and  C_12
REMARK    3  A    between atoms: C_12  and  C_14
REMARK    4  A    between atoms: C_15  and  C_19
REMARK    5  A    between atoms: C_23  and  C_27
REMARK    6  A    between atoms: C_24  and  N_28
REMARK    7  A    between atoms: C_33  and  C_37
REMARK    8  A    between atoms: N_38  and  C_39
REMARK                            x       y       z     vdW  Elec       q    Type
REMARK                         _______ _______ _______ _____ _____    ______ ____
ROOT
ATOM      1  S   UNL     1      24.558   2.145 -14.531  0.00  0.00    -0.088 S 
ATOM      2  C   UNL     1      25.592   2.761 -15.752  0.00  0.00    +0.074 A 
ATOM      3  C   UNL     1      23.224   2.086 -15.590  0.00  0.00    -0.003 A 
ATOM      4  C   UNL     1      24.896   2.925 -16.945  0.00  0.00    +0.026 A 
ATOM      5  C   UNL     1      23.517   2.538 -16.864  0.00  0.00    -0.019 A 
ATOM      6  C   UNL     1      21.892   1.549 -15.174  0.00  0.00    +0.062 C 
ATOM      7  C   UNL     1      22.489   2.585 -17.976  0.00  0.00    +0.144 C 
ATOM      8  C   UNL     1      20.833   1.898 -16.232  0.00  0.00    +0.113 C 
ATOM      9  N   UNL     1      21.331   1.769 -17.605  0.00  0.00    -0.290 N 
ATOM     10  C   UNL     1      20.601   1.116 -18.603  0.00  0.00    +0.283 C 
ATOM     11  O   UNL     1      20.588   1.533 -19.762  0.00  0.00    -0.267 OA
ENDROOT
BRANCH  10  12
ATOM     12  C   UNL     1      20.110  -0.229 -18.245  0.00  0.00    +0.194 A 
ATOM     13  O   UNL     1      21.116  -1.156 -18.040  0.00  0.00    -0.450 OA
ATOM     14  C   UNL     1      19.036  -0.939 -18.791  0.00  0.00    +0.008 A 
ATOM     15  C   UNL     1      20.994  -1.982 -19.111  0.00  0.00    +0.136 A 
ATOM     16  C   UNL     1      19.724  -1.850 -19.652  0.00  0.00    +0.024 A 
ATOM     17  C   UNL     1      17.589  -0.628 -18.819  0.00  0.00    +0.048 C 
ATOM     18  C   UNL     1      22.026  -2.728 -19.652  0.00  0.00    +0.050 A 
ATOM     19  C   UNL     1      19.442  -2.508 -20.859  0.00  0.00    +0.012 A 
ATOM     20  C   UNL     1      21.773  -3.272 -20.915  0.00  0.00    -0.047 A 
ATOM     21  C   UNL     1      20.501  -3.159 -21.507  0.00  0.00    +0.004 A 
ATOM     22  C   UNL     1      22.896  -3.910 -21.685  0.00  0.00    +0.044 C 
ENDBRANCH  10  12
BRANCH   2  23
ATOM     23  C   UNL     1      27.006   3.063 -15.519  0.00  0.00    +0.251 C 
ATOM     24  O   UNL     1      27.587   2.673 -14.506  0.00  0.00    -0.270 OA
ATOM     25  N   UNL     1      27.658   3.818 -16.472  0.00  0.00    -0.307 N 
ATOM     26  H   UNL     1      27.147   4.134 -17.252  0.00  0.00    +0.149 HD
BRANCH  25  27
ATOM     27  C   UNL     1      29.063   4.167 -16.377  0.00  0.00    +0.139 C 
BRANCH  27  28
ATOM     28  C   UNL     1      29.598   4.704 -17.680  0.00  0.00    -0.030 A 
ATOM     29  C   UNL     1      30.048   6.026 -17.762  0.00  0.00    +0.007 A 
ATOM     30  C   UNL     1      29.711   3.900 -18.823  0.00  0.00    +0.007 A 
ATOM     31  C   UNL     1      30.564   6.528 -18.955  0.00  0.00    +0.023 A 
ATOM     32  C   UNL     1      30.235   4.416 -20.023  0.00  0.00    +0.023 A 
ATOM     33  C   UNL     1      30.653   5.748 -20.120  0.00  0.00    +0.030 A 
BRANCH  33  34
ATOM     34  N   UNL     1      31.177   6.325 -21.266  0.00  0.00    -0.333 N 
ATOM     35  C   UNL     1      30.317   6.961 -22.278  0.00  0.00    +0.086 C 
ATOM     36  C   UNL     1      32.452   7.051 -21.085  0.00  0.00    +0.086 C 
ATOM     37  C   UNL     1      31.098   7.044 -23.622  0.00  0.00    -0.060 C 
ATOM     38  C   UNL     1      33.202   7.113 -22.434  0.00  0.00    -0.060 C 
ATOM     39  N   UNL     1      32.396   7.754 -23.499  0.00  0.00    +0.380 N 
ATOM     40  C   UNL     1      33.124   7.732 -24.766  0.00  0.00    -0.096 C 
ATOM     41  H   UNL     1      32.219   8.728 -23.255  0.00  0.00    -0.082 HD
ENDBRANCH  33  34
ENDBRANCH  27  28
ENDBRANCH  25  27
ENDBRANCH   2  23
TORSDOF 5
ENDMDL
MODEL 3
REMARK VINA RESULT:   -10.861      4.196      6.880
REMARK INTER + INTRA:         -14.977
REMARK INTER:                 -14.917
REMARK INTRA:                  -0.060
REMARK UNBOUND:                -0.941
REMARK  Name = CTX-1020743
REMARK  8 active torsions:
REMARK  status: ('A' for Active; 'I' for Inactive)
REMARK    1  A    between atoms: C_2  and  C_4
REMARK    2  A    between atoms: N_9  and  C_12
REMARK    3  A    between atoms: C_12  and  C_14
REMARK    4  A    between atoms: C_15  and  C_19
REMARK    5  A    between atoms: C_23  and  C_27
REMARK    6  A    between atoms: C_24  and  N_28
REMARK    7  A    between atoms: C_33  and  C_37
REMARK    8  A    between atoms: N_38  and  C_39
REMARK                            x       y       z     vdW  Elec       q    Type
REMARK                         _______ _______ _______ _____ _____    ______ ____
ROOT
ATOM      1  S   UNL     1      25.604   2.458 -17.573  0.00  0.00    -0.088 S 
ATOM      2  C   UNL     1      26.037   3.690 -16.461  0.00  0.00    +0.074 A 
ATOM      3  C   UNL     1      24.060   2.274 -16.876  0.00  0.00    -0.003 A 
ATOM      4  C   UNL     1      24.999   3.928 -15.567  0.00  0.00    +0.026 A 
ATOM      5  C   UNL     1      23.843   3.109 -15.796  0.00  0.00    -0.019 A 
ATOM      6  C   UNL     1      23.039   1.330 -17.428  0.00  0.00    +0.062 C 
ATOM      7  C   UNL     1      22.546   3.120 -15.012  0.00  0.00    +0.144 C 
ATOM      8  C   UNL     1      21.882   1.168 -16.429  0.00  0.00    +0.113 C 
ATOM      9  N   UNL     1      21.507   2.428 -15.778  0.00  0.00    -0.290 N 
ATOM     10  C   UNL     1      20.175   2.834 -15.653  0.00  0.00    +0.283 C 
ATOM     11  O   UNL     1      19.774   3.407 -14.639  0.00  0.00    -0.267 OA
ENDROOT
BRANCH  10  12
ATOM     12  C   UNL     1      19.388   2.798 -16.901  0.00  0.00    +0.194 A 
ATOM     13  O   UNL     1      18.142   2.213 -16.762  0.00  0.00    -0.450 OA
ATOM     14  C   UNL     1      19.818   2.486 -18.195  0.00  0.00    +0.008 A 
ATOM     15  C   UNL     1      18.275   1.045 -17.442  0.00  0.00    +0.136 A 
ATOM     16  C   UNL     1      19.343   1.143 -18.321  0.00  0.00    +0.024 A 
ATOM     17  C   UNL     1      20.813   3.151 -19.067  0.00  0.00    +0.048 C 
ATOM     18  C   UNL     1      17.542  -0.101 -17.190  0.00  0.00    +0.050 A 
ATOM     19  C   UNL     1      19.744  -0.009 -19.014  0.00  0.00    +0.012 A 
ATOM     20  C   UNL     1      18.031  -1.267 -17.788  0.00  0.00    -0.047 A 
ATOM     21  C   UNL     1      19.116  -1.218 -18.683  0.00  0.00    +0.004 A 
ATOM     22  C   UNL     1      17.445  -2.597 -17.406  0.00  0.00    +0.044 C 
ENDBRANCH  10  12
BRANCH   2  23
ATOM     23  C   UNL     1      27.337   4.363 -16.486  0.00  0.00    +0.251 C 
ATOM     24  O   UNL     1      27.431   5.583 -16.346  0.00  0.00    -0.270 OA
ATOM     25  N   UNL     1      28.453   3.579 -16.692  0.00  0.00    -0.307 N 
ATOM     26  H   UNL     1      28.330   2.612 -16.830  0.00  0.00    +0.149 HD
BRANCH  25  27
ATOM     27  C   UNL     1      29.802   4.115 -16.714  0.00  0.00    +0.139 C 
BRANCH  27  28
ATOM     28  C   UNL     1      30.160   4.678 -18.065  0.00  0.00    -0.030 A 
ATOM     29  C   UNL     1      30.831   5.902 -18.160  0.00  0.00    +0.007 A 
ATOM     30  C   UNL     1      29.886   3.986 -19.254  0.00  0.00    +0.007 A 
ATOM     31  C   UNL     1      31.187   6.424 -19.403  0.00  0.00    +0.023 A 
ATOM     32  C   UNL     1      30.251   4.521 -20.504  0.00  0.00    +0.023 A 
ATOM     33  C   UNL     1      30.890   5.761 -20.606  0.00  0.00    +0.030 A 
BRANCH  33  34
ATOM     34  N   UNL     1      31.277   6.350 -21.799  0.00  0.00    -0.333 N 
ATOM     35  C   UNL     1      30.293   6.838 -22.780  0.00  0.00    +0.086 C 
ATOM     36  C   UNL     1      32.463   7.230 -21.718  0.00  0.00    +0.086 C 
ATOM     37  C   UNL     1      30.983   6.958 -24.169  0.00  0.00    -0.060 C 
ATOM     38  C   UNL     1      33.125   7.325 -23.111  0.00  0.00    -0.060 C 
ATOM     39  N   UNL     1      32.191   7.823 -24.147  0.00  0.00    +0.380 N 
ATOM     40  C   UNL     1      32.846   7.836 -25.453  0.00  0.00    -0.096 C 
ATOM     41  H   UNL     1      31.911   8.778 -23.926  0.00  0.00    -0.082 HD
ENDBRANCH  33  34
ENDBRANCH  27  28
ENDBRANCH  25  27
ENDBRANCH   2  23
TORSDOF 5
ENDMDL
MODEL 4
REMARK VINA RESULT:   -10.321      4.479     14.788
REMARK INTER + INTRA:         -14.279
REMARK INTER:                 -13.391
REMARK INTRA:                  -0.887
REMARK UNBOUND:                -0.941
REMARK  Name = CTX-1020743
REMARK  8 active torsions:
REMARK  status: ('A' for Active; 'I' for Inactive)
REMARK    1  A    between atoms: C_2  and  C_4
REMARK    2  A    between atoms: N_9  and  C_12
REMARK    3  A    between atoms: C_12  and  C_14
REMARK    4  A    between atoms: C_15  and  C_19
REMARK    5  A    between atoms: C_23  and  C_27
REMARK    6  A    between atoms: C_24  and  N_28
REMARK    7  A    between atoms: C_33  and  C_37
REMARK    8  A    between atoms: N_38  and  C_39
REMARK                            x       y       z     vdW  Elec       q    Type
REMARK                         _______ _______ _______ _____ _____    ______ ____
ROOT
ATOM      1  S   UNL     1      36.417   7.750 -25.202  0.00  0.00    -0.088 S 
ATOM      2  C   UNL     1      34.801   8.323 -25.219  0.00  0.00    +0.074 A 
ATOM      3  C   UNL     1      36.588   7.970 -26.884  0.00  0.00    -0.003 A 
ATOM      4  C   UNL     1      34.415   8.658 -26.513  0.00  0.00    +0.026 A 
ATOM      5  C   UNL     1      35.445   8.455 -27.491  0.00  0.00    -0.019 A 
ATOM      6  C   UNL     1      37.873   7.704 -27.601  0.00  0.00    +0.062 C 
ATOM      7  C   UNL     1      35.356   8.725 -28.980  0.00  0.00    +0.144 C 
ATOM      8  C   UNL     1      37.635   7.704 -29.119  0.00  0.00    +0.113 C 
ATOM      9  N   UNL     1      36.703   8.750 -29.553  0.00  0.00    -0.290 N 
ATOM     10  C   UNL     1      36.970   9.577 -30.648  0.00  0.00    +0.283 C 
ATOM     11  O   UNL     1      36.074   9.924 -31.420  0.00  0.00    -0.267 OA
ENDROOT
BRANCH  10  12
ATOM     12  C   UNL     1      38.295  10.224 -30.639  0.00  0.00    +0.194 A 
ATOM     13  O   UNL     1      38.726  10.605 -29.380  0.00  0.00    -0.450 OA
ATOM     14  C   UNL     1      38.806  11.179 -31.525  0.00  0.00    +0.008 A 
ATOM     15  C   UNL     1      38.657  11.960 -29.430  0.00  0.00    +0.136 A 
ATOM     16  C   UNL     1      38.655  12.373 -30.754  0.00  0.00    +0.024 A 
ATOM     17  C   UNL     1      39.067  11.100 -32.981  0.00  0.00    +0.048 C 
ATOM     18  C   UNL     1      38.477  12.781 -28.331  0.00  0.00    +0.050 A 
ATOM     19  C   UNL     1      38.439  13.732 -31.029  0.00  0.00    +0.012 A 
ATOM     20  C   UNL     1      38.137  14.106 -28.622  0.00  0.00    -0.047 A 
ATOM     21  C   UNL     1      38.116  14.569 -29.951  0.00  0.00    +0.004 A 
ATOM     22  C   UNL     1      37.706  15.021 -27.511  0.00  0.00    +0.044 C 
ENDBRANCH  10  12
BRANCH   2  23
ATOM     23  C   UNL     1      33.979   8.420 -24.012  0.00  0.00    +0.251 C 
ATOM     24  O   UNL     1      33.656   9.512 -23.541  0.00  0.00    -0.270 OA
ATOM     25  N   UNL     1      33.593   7.240 -23.410  0.00  0.00    -0.307 N 
ATOM     26  H   UNL     1      33.899   6.390 -23.803  0.00  0.00    +0.149 HD
BRANCH  25  27
ATOM     27  C   UNL     1      32.758   7.194 -22.225  0.00  0.00    +0.139 C 
BRANCH  27  28
ATOM     28  C   UNL     1      31.578   6.273 -22.404  0.00  0.00    -0.030 A 
ATOM     29  C   UNL     1      30.687   6.472 -23.465  0.00  0.00    +0.007 A 
ATOM     30  C   UNL     1      31.361   5.173 -21.562  0.00  0.00    +0.007 A 
ATOM     31  C   UNL     1      29.604   5.615 -23.654  0.00  0.00    +0.023 A 
ATOM     32  C   UNL     1      30.265   4.313 -21.762  0.00  0.00    +0.023 A 
ATOM     33  C   UNL     1      29.351   4.529 -22.800  0.00  0.00    +0.030 A 
BRANCH  33  34
ATOM     34  N   UNL     1      28.251   3.726 -23.057  0.00  0.00    -0.333 N 
ATOM     35  C   UNL     1      27.743   2.764 -22.065  0.00  0.00    +0.086 C 
ATOM     36  C   UNL     1      27.157   4.372 -23.814  0.00  0.00    +0.086 C 
ATOM     37  C   UNL     1      26.877   1.697 -22.796  0.00  0.00    -0.060 C 
ATOM     38  C   UNL     1      26.320   3.288 -24.529  0.00  0.00    -0.060 C 
ATOM     39  N   UNL     1      25.767   2.289 -23.586  0.00  0.00    +0.380 N 
ATOM     40  C   UNL     1      25.037   1.254 -24.316  0.00  0.00    -0.096 C 
ATOM     41  H   UNL     1      25.113   2.744 -22.949  0.00  0.00    -0.082 HD
ENDBRANCH  33  34
ENDBRANCH  27  28
ENDBRANCH  25  27
ENDBRANCH   2  23
TORSDOF 5
ENDMDL
MODEL 5
REMARK VINA RESULT:   -10.301      3.629      7.470
REMARK INTER + INTRA:         -14.253
REMARK INTER:                 -14.416
REMARK INTRA:                   0.163
REMARK UNBOUND:                -0.941
REMARK  Name = CTX-1020743
REMARK  8 active torsions:
REMARK  status: ('A' for Active; 'I' for Inactive)
REMARK    1  A    between atoms: C_2  and  C_4
REMARK    2  A    between atoms: N_9  and  C_12
REMARK    3  A    between atoms: C_12  and  C_14
REMARK    4  A    between atoms: C_15  and  C_19
REMARK    5  A    between atoms: C_23  and  C_27
REMARK    6  A    between atoms: C_24  and  N_28
REMARK    7  A    between atoms: C_33  and  C_37
REMARK    8  A    between atoms: N_38  and  C_39
REMARK                            x       y       z     vdW  Elec       q    Type
REMARK                         _______ _______ _______ _____ _____    ______ ____
ROOT
ATOM      1  S   UNL     1      23.984   2.173 -18.695  0.00  0.00    -0.088 S 
ATOM      2  C   UNL     1      23.658   1.522 -20.247  0.00  0.00    +0.074 A 
ATOM      3  C   UNL     1      22.327   2.364 -18.348  0.00  0.00    -0.003 A 
ATOM      4  C   UNL     1      22.287   1.477 -20.480  0.00  0.00    +0.026 A 
ATOM      5  C   UNL     1      21.501   1.966 -19.384  0.00  0.00    -0.019 A 
ATOM      6  C   UNL     1      21.836   2.869 -17.029  0.00  0.00    +0.062 C 
ATOM      7  C   UNL     1      19.990   2.048 -19.308  0.00  0.00    +0.144 C 
ATOM      8  C   UNL     1      20.341   3.211 -17.122  0.00  0.00    +0.113 C 
ATOM      9  N   UNL     1      19.580   2.240 -17.916  0.00  0.00    -0.290 N 
ATOM     10  C   UNL     1      18.362   1.711 -17.478  0.00  0.00    +0.283 C 
ATOM     11  O   UNL     1      17.438   1.501 -18.264  0.00  0.00    -0.267 OA
ENDROOT
BRANCH  10  12
ATOM     12  C   UNL     1      18.372   1.162 -16.108  0.00  0.00    +0.194 A 
ATOM     13  O   UNL     1      17.801   1.997 -15.164  0.00  0.00    -0.450 OA
ATOM     14  C   UNL     1      19.402   0.482 -15.449  0.00  0.00    +0.008 A 
ATOM     15  C   UNL     1      18.870   2.408 -14.433  0.00  0.00    +0.136 A 
ATOM     16  C   UNL     1      19.920   1.520 -14.613  0.00  0.00    +0.024 A 
ATOM     17  C   UNL     1      20.064  -0.805 -15.764  0.00  0.00    +0.048 C 
ATOM     18  C   UNL     1      18.935   3.600 -13.735  0.00  0.00    +0.050 A 
ATOM     19  C   UNL     1      21.169   1.843 -14.061  0.00  0.00    +0.012 A 
ATOM     20  C   UNL     1      20.212   3.971 -13.300  0.00  0.00    -0.047 A 
ATOM     21  C   UNL     1      21.309   3.105 -13.466  0.00  0.00    +0.004 A 
ATOM     22  C   UNL     1      20.430   5.343 -12.728  0.00  0.00    +0.044 C 
ENDBRANCH  10  12
BRANCH   2  23
ATOM     23  C   UNL     1      24.712   1.094 -21.169  0.00  0.00    +0.251 C 
ATOM     24  O   UNL     1      24.982  -0.097 -21.327  0.00  0.00    -0.270 OA
ATOM     25  N   UNL     1      25.406   2.080 -21.840  0.00  0.00    -0.307 N 
ATOM     26  H   UNL     1      25.178   3.021 -21.661  0.00  0.00    +0.149 HD
BRANCH  25  27
ATOM     27  C   UNL     1      26.456   1.792 -22.799  0.00  0.00    +0.139 C 
BRANCH  27  28
ATOM     28  C   UNL     1      27.560   2.817 -22.748  0.00  0.00    -0.030 A 
ATOM     29  C   UNL     1      27.459   3.996 -23.494  0.00  0.00    +0.007 A 
ATOM     30  C   UNL     1      28.685   2.655 -21.927  0.00  0.00    +0.007 A 
ATOM     31  C   UNL     1      28.463   4.961 -23.439  0.00  0.00    +0.023 A 
ATOM     32  C   UNL     1      29.693   3.636 -21.877  0.00  0.00    +0.023 A 
ATOM     33  C   UNL     1      29.614   4.800 -22.649  0.00  0.00    +0.030 A 
BRANCH  33  34
ATOM     34  N   UNL     1      30.566   5.807 -22.653  0.00  0.00    -0.333 N 
ATOM     35  C   UNL     1      31.751   5.759 -21.779  0.00  0.00    +0.086 C 
ATOM     36  C   UNL     1      30.877   6.382 -23.979  0.00  0.00    +0.086 C 
ATOM     37  C   UNL     1      32.327   7.197 -21.633  0.00  0.00    -0.060 C 
ATOM     38  C   UNL     1      31.444   7.808 -23.798  0.00  0.00    -0.060 C 
ATOM     39  N   UNL     1      32.648   7.831 -22.937  0.00  0.00    +0.380 N 
ATOM     40  C   UNL     1      33.107   9.206 -22.748  0.00  0.00    -0.096 C 
ATOM     41  H   UNL     1      33.400   7.308 -23.384  0.00  0.00    -0.082 HD
ENDBRANCH  33  34
ENDBRANCH  27  28
ENDBRANCH  25  27
ENDBRANCH   2  23
TORSDOF 5
ENDMDL
