MODEL 1
REMARK VINA RESULT:   -12.005      0.000      0.000
REMARK INTER + INTRA:         -16.142
REMARK INTER:                 -15.514
REMARK INTRA:                  -0.628
REMARK UNBOUND:                -0.628
REMARK  Name = CTX-1020740
REMARK  6 active torsions:
REMARK  status: ('A' for Active; 'I' for Inactive)
REMARK    1  A    between atoms: C_2  and  C_4
REMARK    2  A    between atoms: N_9  and  C_12
REMARK    3  A    between atoms: C_12  and  C_14
REMARK    4  A    between atoms: C_15  and  C_19
REMARK    5  A    between atoms: C_23  and  C_27
REMARK    6  A    between atoms: C_24  and  C_28
REMARK                            x       y       z     vdW  Elec       q    Type
REMARK                         _______ _______ _______ _____ _____    ______ ____
ROOT
ATOM      1  S   UNL     1      23.749  -0.198 -22.856  0.00  0.00    -0.088 S 
ATOM      2  C   UNL     1      25.045   0.833 -22.417  0.00  0.00    +0.074 A 
ATOM      3  C   UNL     1      23.154  -0.241 -21.259  0.00  0.00    -0.003 A 
ATOM      4  C   UNL     1      25.008   1.116 -21.058  0.00  0.00    +0.026 A 
ATOM      5  C   UNL     1      23.914   0.493 -20.372  0.00  0.00    -0.019 A 
ATOM      6  C   UNL     1      21.902  -0.972 -20.890  0.00  0.00    +0.062 C 
ATOM      7  C   UNL     1      23.590   0.597 -18.898  0.00  0.00    +0.144 C 
ATOM      8  C   UNL     1      21.810  -1.100 -19.359  0.00  0.00    +0.113 C 
ATOM      9  N   UNL     1      22.227   0.120 -18.660  0.00  0.00    -0.290 N 
ATOM     10  C   UNL     1      21.484   0.667 -17.604  0.00  0.00    +0.283 C 
ATOM     11  O   UNL     1      22.041   1.208 -16.648  0.00  0.00    -0.267 OA
ENDROOT
BRANCH  10  12
ATOM     12  C   UNL     1      20.031   0.796 -17.849  0.00  0.00    +0.194 A 
ATOM     13  O   UNL     1      19.524   2.043 -17.511  0.00  0.00    -0.450 OA
ATOM     14  C   UNL     1      19.015  -0.110 -17.520  0.00  0.00    +0.008 A 
ATOM     15  C   UNL     1      18.854   1.791 -16.356  0.00  0.00    +0.136 A 
ATOM     16  C   UNL     1      18.557   0.436 -16.282  0.00  0.00    +0.024 A 
ATOM     17  C   UNL     1      18.686  -1.435 -18.094  0.00  0.00    +0.048 C 
ATOM     18  C   UNL     1      18.607   2.724 -15.364  0.00  0.00    +0.047 A 
ATOM     19  C   UNL     1      17.969  -0.052 -15.106  0.00  0.00    +0.012 A 
ATOM     20  C   UNL     1      18.130   2.201 -14.164  0.00  0.00    +0.004 A 
ATOM     21  C   UNL     1      17.824   0.840 -14.032  0.00  0.00    +0.001 A 
ENDBRANCH  10  12
BRANCH   2  22
ATOM     22  C   UNL     1      26.016   1.345 -23.385  0.00  0.00    +0.251 C 
ATOM     23  O   UNL     1      26.954   0.655 -23.799  0.00  0.00    -0.270 OA
ATOM     24  N   UNL     1      25.860   2.656 -23.799  0.00  0.00    -0.307 N 
ATOM     25  H   UNL     1      25.082   3.168 -23.481  0.00  0.00    +0.149 HD
BRANCH  24  26
ATOM     26  C   UNL     1      26.807   3.297 -24.685  0.00  0.00    +0.139 C 
BRANCH  26  27
ATOM     27  C   UNL     1      26.376   3.252 -26.131  0.00  0.00    -0.030 A 
ATOM     28  C   UNL     1      25.544   4.246 -26.663  0.00  0.00    +0.006 A 
ATOM     29  C   UNL     1      26.806   2.212 -26.967  0.00  0.00    +0.006 A 
ATOM     30  C   UNL     1      25.168   4.212 -28.009  0.00  0.00    +0.013 A 
ATOM     31  C   UNL     1      26.432   2.178 -28.313  0.00  0.00    +0.013 A 
ATOM     32  C   UNL     1      25.609   3.180 -28.850  0.00  0.00    +0.055 A 
BRANCH  32  33
ATOM     33  C   UNL     1      25.215   3.132 -30.306  0.00  0.00    +0.417 C 
ATOM     34  F   UNL     1      23.870   3.213 -30.509  0.00  0.00    -0.166 F 
ATOM     35  F   UNL     1      25.762   4.147 -31.030  0.00  0.00    -0.166 F 
ATOM     36  F   UNL     1      25.614   1.981 -30.916  0.00  0.00    -0.166 F 
ENDBRANCH  32  33
ENDBRANCH  26  27
ENDBRANCH  24  26
ENDBRANCH   2  22
TORSDOF 5
ENDMDL
MODEL 2
REMARK VINA RESULT:   -11.635      6.026      8.059
REMARK INTER + INTRA:         -15.663
REMARK INTER:                 -14.960
REMARK INTRA:                  -0.703
REMARK UNBOUND:                -0.628
REMARK  Name = CTX-1020740
REMARK  6 active torsions:
REMARK  status: ('A' for Active; 'I' for Inactive)
REMARK    1  A    between atoms: C_2  and  C_4
REMARK    2  A    between atoms: N_9  and  C_12
REMARK    3  A    between atoms: C_12  and  C_14
REMARK    4  A    between atoms: C_15  and  C_19
REMARK    5  A    between atoms: C_23  and  C_27
REMARK    6  A    between atoms: C_24  and  C_28
REMARK                            x       y       z     vdW  Elec       q    Type
REMARK                         _______ _______ _______ _____ _____    ______ ____
ROOT
ATOM      1  S   UNL     1      27.908   5.280 -24.014  0.00  0.00    -0.088 S 
ATOM      2  C   UNL     1      29.045   5.173 -22.738  0.00  0.00    +0.074 A 
ATOM      3  C   UNL     1      27.295   3.723 -23.689  0.00  0.00    -0.003 A 
ATOM      4  C   UNL     1      28.946   3.947 -22.094  0.00  0.00    +0.026 A 
ATOM      5  C   UNL     1      27.934   3.092 -22.641  0.00  0.00    -0.019 A 
ATOM      6  C   UNL     1      26.146   3.139 -24.449  0.00  0.00    +0.062 C 
ATOM      7  C   UNL     1      27.572   1.700 -22.174  0.00  0.00    +0.144 C 
ATOM      8  C   UNL     1      26.045   1.632 -24.155  0.00  0.00    +0.113 C 
ATOM      9  N   UNL     1      26.282   1.309 -22.744  0.00  0.00    -0.290 N 
ATOM     10  C   UNL     1      25.453   0.434 -22.029  0.00  0.00    +0.283 C 
ATOM     11  O   UNL     1      25.914  -0.321 -21.173  0.00  0.00    -0.267 OA
ENDROOT
BRANCH  10  12
ATOM     12  C   UNL     1      24.000   0.675 -22.169  0.00  0.00    +0.194 A 
ATOM     13  O   UNL     1      23.366   0.939 -20.963  0.00  0.00    -0.450 OA
ATOM     14  C   UNL     1      23.070  -0.060 -22.915  0.00  0.00    +0.008 A 
ATOM     15  C   UNL     1      22.697  -0.217 -20.717  0.00  0.00    +0.136 A 
ATOM     16  C   UNL     1      22.532  -0.916 -21.906  0.00  0.00    +0.024 A 
ATOM     17  C   UNL     1      22.885  -0.171 -24.380  0.00  0.00    +0.048 C 
ATOM     18  C   UNL     1      22.337  -0.673 -19.460  0.00  0.00    +0.047 A 
ATOM     19  C   UNL     1      21.967  -2.199 -21.850  0.00  0.00    +0.012 A 
ATOM     20  C   UNL     1      21.886  -1.990 -19.413  0.00  0.00    +0.004 A 
ATOM     21  C   UNL     1      21.711  -2.743 -20.582  0.00  0.00    +0.001 A 
ENDBRANCH  10  12
BRANCH   2  22
ATOM     22  C   UNL     1      29.956   6.266 -22.391  0.00  0.00    +0.251 C 
ATOM     23  O   UNL     1      30.091   6.661 -21.229  0.00  0.00    -0.270 OA
ATOM     24  N   UNL     1      30.643   6.865 -23.431  0.00  0.00    -0.307 N 
ATOM     25  H   UNL     1      30.544   6.504 -24.341  0.00  0.00    +0.149 HD
BRANCH  24  26
ATOM     26  C   UNL     1      31.503   8.009 -23.222  0.00  0.00    +0.139 C 
BRANCH  26  27
ATOM     27  C   UNL     1      32.615   8.098 -24.240  0.00  0.00    -0.030 A 
ATOM     28  C   UNL     1      33.897   8.521 -23.867  0.00  0.00    +0.006 A 
ATOM     29  C   UNL     1      32.379   7.754 -25.579  0.00  0.00    +0.006 A 
ATOM     30  C   UNL     1      34.928   8.578 -24.809  0.00  0.00    +0.013 A 
ATOM     31  C   UNL     1      33.410   7.810 -26.521  0.00  0.00    +0.013 A 
ATOM     32  C   UNL     1      34.698   8.221 -26.146  0.00  0.00    +0.055 A 
BRANCH  32  33
ATOM     33  C   UNL     1      35.800   8.274 -27.174  0.00  0.00    +0.417 C 
ATOM     34  F   UNL     1      36.834   9.090 -26.822  0.00  0.00    -0.166 F 
ATOM     35  F   UNL     1      36.355   7.053 -27.410  0.00  0.00    -0.166 F 
ATOM     36  F   UNL     1      35.366   8.727 -28.383  0.00  0.00    -0.166 F 
ENDBRANCH  32  33
ENDBRANCH  26  27
ENDBRANCH  24  26
ENDBRANCH   2  22
TORSDOF 5
ENDMDL
MODEL 3
REMARK VINA RESULT:   -11.128      1.143      1.977
REMARK INTER + INTRA:         -15.008
REMARK INTER:                 -15.213
REMARK INTRA:                   0.204
REMARK UNBOUND:                -0.628
REMARK  Name = CTX-1020740
REMARK  6 active torsions:
REMARK  status: ('A' for Active; 'I' for Inactive)
REMARK    1  A    between atoms: C_2  and  C_4
REMARK    2  A    between atoms: N_9  and  C_12
REMARK    3  A    between atoms: C_12  and  C_14
REMARK    4  A    between atoms: C_15  and  C_19
REMARK    5  A    between atoms: C_23  and  C_27
REMARK    6  A    between atoms: C_24  and  C_28
REMARK                            x       y       z     vdW  Elec       q    Type
REMARK                         _______ _______ _______ _____ _____    ______ ____
ROOT
ATOM      1  S   UNL     1      23.739   0.515 -22.317  0.00  0.00    -0.088 S 
ATOM      2  C   UNL     1      25.200   1.311 -21.911  0.00  0.00    +0.074 A 
ATOM      3  C   UNL     1      23.211   0.512 -20.696  0.00  0.00    -0.003 A 
ATOM      4  C   UNL     1      25.265   1.550 -20.544  0.00  0.00    +0.026 A 
ATOM      5  C   UNL     1      24.115   1.086 -19.826  0.00  0.00    -0.019 A 
ATOM      6  C   UNL     1      21.874  -0.023 -20.289  0.00  0.00    +0.062 C 
ATOM      7  C   UNL     1      23.873   1.190 -18.336  0.00  0.00    +0.144 C 
ATOM      8  C   UNL     1      21.827  -0.187 -18.760  0.00  0.00    +0.113 C 
ATOM      9  N   UNL     1      22.462   0.927 -18.048  0.00  0.00    -0.290 N 
ATOM     10  C   UNL     1      21.860   1.549 -16.944  0.00  0.00    +0.283 C 
ATOM     11  O   UNL     1      22.535   1.962 -16.001  0.00  0.00    -0.267 OA
ENDROOT
BRANCH  10  12
ATOM     12  C   UNL     1      20.438   1.915 -17.119  0.00  0.00    +0.194 A 
ATOM     13  O   UNL     1      19.613   1.411 -16.122  0.00  0.00    -0.450 OA
ATOM     14  C   UNL     1      19.668   1.862 -18.288  0.00  0.00    +0.008 A 
ATOM     15  C   UNL     1      18.967   0.396 -16.753  0.00  0.00    +0.136 A 
ATOM     16  C   UNL     1      19.020   0.599 -18.126  0.00  0.00    +0.024 A 
ATOM     17  C   UNL     1      19.718   2.696 -19.510  0.00  0.00    +0.048 C 
ATOM     18  C   UNL     1      18.437  -0.718 -16.125  0.00  0.00    +0.047 A 
ATOM     19  C   UNL     1      18.511  -0.403 -18.966  0.00  0.00    +0.012 A 
ATOM     20  C   UNL     1      18.043  -1.748 -16.976  0.00  0.00    +0.004 A 
ATOM     21  C   UNL     1      18.086  -1.599 -18.369  0.00  0.00    +0.001 A 
ENDBRANCH  10  12
BRANCH   2  22
ATOM     22  C   UNL     1      26.200   1.696 -22.909  0.00  0.00    +0.251 C 
ATOM     23  O   UNL     1      27.231   1.041 -23.087  0.00  0.00    -0.270 OA
ATOM     24  N   UNL     1      25.956   2.851 -23.630  0.00  0.00    -0.307 N 
ATOM     25  H   UNL     1      25.108   3.330 -23.493  0.00  0.00    +0.149 HD
BRANCH  24  26
ATOM     26  C   UNL     1      26.912   3.376 -24.580  0.00  0.00    +0.139 C 
BRANCH  26  27
ATOM     27  C   UNL     1      26.419   3.302 -26.005  0.00  0.00    -0.030 A 
ATOM     28  C   UNL     1      25.562   4.284 -26.520  0.00  0.00    +0.006 A 
ATOM     29  C   UNL     1      26.816   2.247 -26.839  0.00  0.00    +0.006 A 
ATOM     30  C   UNL     1      25.128   4.224 -27.847  0.00  0.00    +0.013 A 
ATOM     31  C   UNL     1      26.383   2.187 -28.167  0.00  0.00    +0.013 A 
ATOM     32  C   UNL     1      25.536   3.177 -28.687  0.00  0.00    +0.055 A 
BRANCH  32  33
ATOM     33  C   UNL     1      25.079   3.099 -30.123  0.00  0.00    +0.417 C 
ATOM     34  F   UNL     1      25.527   4.131 -30.893  0.00  0.00    -0.166 F 
ATOM     35  F   UNL     1      25.499   1.963 -30.745  0.00  0.00    -0.166 F 
ATOM     36  F   UNL     1      23.722   3.110 -30.241  0.00  0.00    -0.166 F 
ENDBRANCH  32  33
ENDBRANCH  26  27
ENDBRANCH  24  26
ENDBRANCH   2  22
TORSDOF 5
ENDMDL
MODEL 4
REMARK VINA RESULT:   -10.730      6.245     10.979
REMARK INTER + INTRA:         -14.494
REMARK INTER:                 -13.754
REMARK INTRA:                  -0.741
REMARK UNBOUND:                -0.628
REMARK  Name = CTX-1020740
REMARK  6 active torsions:
REMARK  status: ('A' for Active; 'I' for Inactive)
REMARK    1  A    between atoms: C_2  and  C_4
REMARK    2  A    between atoms: N_9  and  C_12
REMARK    3  A    between atoms: C_12  and  C_14
REMARK    4  A    between atoms: C_15  and  C_19
REMARK    5  A    between atoms: C_23  and  C_27
REMARK    6  A    between atoms: C_24  and  C_28
REMARK                            x       y       z     vdW  Elec       q    Type
REMARK                         _______ _______ _______ _____ _____    ______ ____
ROOT
ATOM      1  S   UNL     1      24.435   3.115 -16.168  0.00  0.00    -0.088 S 
ATOM      2  C   UNL     1      24.006   2.029 -17.422  0.00  0.00    +0.074 A 
ATOM      3  C   UNL     1      26.042   3.230 -16.726  0.00  0.00    -0.003 A 
ATOM      4  C   UNL     1      25.099   1.763 -18.236  0.00  0.00    +0.026 A 
ATOM      5  C   UNL     1      26.291   2.453 -17.838  0.00  0.00    -0.019 A 
ATOM      6  C   UNL     1      27.051   4.127 -16.082  0.00  0.00    +0.062 C 
ATOM      7  C   UNL     1      27.646   2.382 -18.507  0.00  0.00    +0.144 C 
ATOM      8  C   UNL     1      28.459   3.769 -16.589  0.00  0.00    +0.113 C 
ATOM      9  N   UNL     1      28.490   3.478 -18.027  0.00  0.00    -0.290 N 
ATOM     10  C   UNL     1      29.466   4.016 -18.878  0.00  0.00    +0.283 C 
ATOM     11  O   UNL     1      29.914   3.365 -19.822  0.00  0.00    -0.267 OA
ENDROOT
BRANCH  10  12
ATOM     12  C   UNL     1      29.703   5.469 -18.736  0.00  0.00    +0.194 A 
ATOM     13  O   UNL     1      29.381   6.193 -19.876  0.00  0.00    -0.450 OA
ATOM     14  C   UNL     1      30.825   6.114 -18.201  0.00  0.00    +0.008 A 
ATOM     15  C   UNL     1      30.600   6.497 -20.392  0.00  0.00    +0.136 A 
ATOM     16  C   UNL     1      31.559   6.407 -19.391  0.00  0.00    +0.024 A 
ATOM     17  C   UNL     1      31.305   6.207 -16.803  0.00  0.00    +0.048 C 
ATOM     18  C   UNL     1      30.855   6.749 -21.729  0.00  0.00    +0.047 A 
ATOM     19  C   UNL     1      32.907   6.568 -19.746  0.00  0.00    +0.012 A 
ATOM     20  C   UNL     1      32.203   6.791 -22.079  0.00  0.00    +0.004 A 
ATOM     21  C   UNL     1      33.211   6.694 -21.110  0.00  0.00    +0.001 A 
ENDBRANCH  10  12
BRANCH   2  22
ATOM     22  C   UNL     1      22.650   1.504 -17.589  0.00  0.00    +0.251 C 
ATOM     23  O   UNL     1      21.669   2.046 -17.069  0.00  0.00    -0.270 OA
ATOM     24  N   UNL     1      22.511   0.347 -18.335  0.00  0.00    -0.307 N 
ATOM     25  H   UNL     1      23.305  -0.040 -18.768  0.00  0.00    +0.149 HD
BRANCH  24  26
ATOM     26  C   UNL     1      21.234  -0.311 -18.496  0.00  0.00    +0.139 C 
BRANCH  26  27
ATOM     27  C   UNL     1      21.322  -1.558 -19.344  0.00  0.00    -0.030 A 
ATOM     28  C   UNL     1      20.803  -2.776 -18.884  0.00  0.00    +0.006 A 
ATOM     29  C   UNL     1      21.925  -1.514 -20.608  0.00  0.00    +0.006 A 
ATOM     30  C   UNL     1      20.866  -3.921 -19.683  0.00  0.00    +0.013 A 
ATOM     31  C   UNL     1      21.987  -2.659 -21.408  0.00  0.00    +0.013 A 
ATOM     32  C   UNL     1      21.456  -3.875 -20.955  0.00  0.00    +0.055 A 
BRANCH  32  33
ATOM     33  C   UNL     1      21.529  -5.102 -21.831  0.00  0.00    +0.417 C 
ATOM     34  F   UNL     1      20.412  -5.298 -22.587  0.00  0.00    -0.166 F 
ATOM     35  F   UNL     1      22.569  -5.057 -22.709  0.00  0.00    -0.166 F 
ATOM     36  F   UNL     1      21.696  -6.247 -21.112  0.00  0.00    -0.166 F 
ENDBRANCH  32  33
ENDBRANCH  26  27
ENDBRANCH  24  26
ENDBRANCH   2  22
TORSDOF 5
ENDMDL
MODEL 5
REMARK VINA RESULT:   -10.479      5.563      6.628
REMARK INTER + INTRA:         -14.170
REMARK INTER:                 -14.460
REMARK INTRA:                   0.290
REMARK UNBOUND:                -0.628
REMARK  Name = CTX-1020740
REMARK  6 active torsions:
REMARK  status: ('A' for Active; 'I' for Inactive)
REMARK    1  A    between atoms: C_2  and  C_4
REMARK    2  A    between atoms: N_9  and  C_12
REMARK    3  A    between atoms: C_12  and  C_14
REMARK    4  A    between atoms: C_15  and  C_19
REMARK    5  A    between atoms: C_23  and  C_27
REMARK    6  A    between atoms: C_24  and  C_28
REMARK                            x       y       z     vdW  Elec       q    Type
REMARK                         _______ _______ _______ _____ _____    ______ ____
ROOT
ATOM      1  S   UNL     1      25.765   2.451 -17.954  0.00  0.00    -0.088 S 
ATOM      2  C   UNL     1      26.251   3.575 -16.756  0.00  0.00    +0.074 A 
ATOM      3  C   UNL     1      24.225   2.264 -17.248  0.00  0.00    -0.003 A 
ATOM      4  C   UNL     1      25.235   3.778 -15.832  0.00  0.00    +0.026 A 
ATOM      5  C   UNL     1      24.052   3.017 -16.105  0.00  0.00    -0.019 A 
ATOM      6  C   UNL     1      23.166   1.397 -17.853  0.00  0.00    +0.062 C 
ATOM      7  C   UNL     1      22.773   3.008 -15.297  0.00  0.00    +0.144 C 
ATOM      8  C   UNL     1      22.034   1.176 -16.834  0.00  0.00    +0.113 C 
ATOM      9  N   UNL     1      21.701   2.390 -16.080  0.00  0.00    -0.290 N 
ATOM     10  C   UNL     1      20.377   2.805 -15.878  0.00  0.00    +0.283 C 
ATOM     11  O   UNL     1      20.034   3.343 -14.825  0.00  0.00    -0.267 OA
ENDROOT
BRANCH  10  12
ATOM     12  C   UNL     1      19.520   2.808 -17.083  0.00  0.00    +0.194 A 
ATOM     13  O   UNL     1      18.234   2.342 -16.846  0.00  0.00    -0.450 OA
ATOM     14  C   UNL     1      19.838   2.357 -18.371  0.00  0.00    +0.008 A 
ATOM     15  C   UNL     1      18.255   1.106 -17.410  0.00  0.00    +0.136 A 
ATOM     16  C   UNL     1      19.285   1.041 -18.339  0.00  0.00    +0.024 A 
ATOM     17  C   UNL     1      20.751   2.925 -19.389  0.00  0.00    +0.048 C 
ATOM     18  C   UNL     1      17.444   0.049 -17.032  0.00  0.00    +0.047 A 
ATOM     19  C   UNL     1      19.552  -0.194 -18.949  0.00  0.00    +0.012 A 
ATOM     20  C   UNL     1      17.799  -1.190 -17.562  0.00  0.00    +0.004 A 
ATOM     21  C   UNL     1      18.837  -1.313 -18.496  0.00  0.00    +0.001 A 
ENDBRANCH  10  12
BRANCH   2  22
ATOM     22  C   UNL     1      27.561   4.231 -16.767  0.00  0.00    +0.251 C 
ATOM     23  O   UNL     1      27.712   5.397 -16.389  0.00  0.00    -0.270 OA
ATOM     24  N   UNL     1      28.628   3.495 -17.250  0.00  0.00    -0.307 N 
ATOM     25  H   UNL     1      28.484   2.556 -17.508  0.00  0.00    +0.149 HD
BRANCH  24  26
ATOM     26  C   UNL     1      29.950   4.065 -17.389  0.00  0.00    +0.139 C 
BRANCH  26  27
ATOM     27  C   UNL     1      30.168   4.713 -18.736  0.00  0.00    -0.030 A 
ATOM     28  C   UNL     1      30.510   6.068 -18.833  0.00  0.00    +0.006 A 
ATOM     29  C   UNL     1      30.034   3.964 -19.913  0.00  0.00    +0.006 A 
ATOM     30  C   UNL     1      30.734   6.656 -20.081  0.00  0.00    +0.013 A 
ATOM     31  C   UNL     1      30.260   4.551 -21.161  0.00  0.00    +0.013 A 
ATOM     32  C   UNL     1      30.614   5.905 -21.259  0.00  0.00    +0.055 A 
BRANCH  32  33
ATOM     33  C   UNL     1      30.856   6.524 -22.613  0.00  0.00    +0.417 C 
ATOM     34  F   UNL     1      32.156   6.456 -23.018  0.00  0.00    -0.166 F 
ATOM     35  F   UNL     1      30.129   5.929 -23.598  0.00  0.00    -0.166 F 
ATOM     36  F   UNL     1      30.525   7.845 -22.650  0.00  0.00    -0.166 F 
ENDBRANCH  32  33
ENDBRANCH  26  27
ENDBRANCH  24  26
ENDBRANCH   2  22
TORSDOF 5
ENDMDL
