MODEL 1
REMARK VINA RESULT:   -10.249      0.000      0.000
REMARK INTER + INTRA:         -13.789
REMARK INTER:                 -13.245
REMARK INTRA:                  -0.544
REMARK UNBOUND:                -0.544
REMARK  Name = CTX-1020744
REMARK  7 active torsions:
REMARK  status: ('A' for Active; 'I' for Inactive)
REMARK    1  A    between atoms: C_2  and  C_4
REMARK    2  A    between atoms: N_9  and  C_12
REMARK    3  A    between atoms: C_12  and  C_14
REMARK    4  A    between atoms: C_15  and  C_19
REMARK    5  A    between atoms: C_23  and  C_27
REMARK    6  A    between atoms: C_24  and  N_28
REMARK    7  A    between atoms: N_37  and  C_38
REMARK                            x       y       z     vdW  Elec       q    Type
REMARK                         _______ _______ _______ _____ _____    ______ ____
ROOT
ATOM      1  S   UNL     1      28.239   5.602 -23.275  0.00  0.00    -0.088 S 
ATOM      2  C   UNL     1      29.728   5.688 -22.427  0.00  0.00    +0.074 A 
ATOM      3  C   UNL     1      27.932   4.020 -22.716  0.00  0.00    -0.003 A 
ATOM      4  C   UNL     1      29.961   4.512 -21.726  0.00  0.00    +0.026 A 
ATOM      5  C   UNL     1      28.916   3.548 -21.869  0.00  0.00    -0.019 A 
ATOM      6  C   UNL     1      26.714   3.225 -23.086  0.00  0.00    +0.062 C 
ATOM      7  C   UNL     1      28.880   2.171 -21.245  0.00  0.00    +0.144 C 
ATOM      8  C   UNL     1      26.975   1.742 -22.761  0.00  0.00    +0.113 C 
ATOM      9  N   UNL     1      27.537   1.593 -21.407  0.00  0.00    -0.290 N 
ATOM     10  C   UNL     1      26.871   1.055 -20.297  0.00  0.00    +0.283 C 
ATOM     11  O   UNL     1      27.386   1.092 -19.178  0.00  0.00    -0.267 OA
ENDROOT
BRANCH  10  12
ATOM     12  C   UNL     1      25.552   0.449 -20.504  0.00  0.00    +0.195 A 
ATOM     13  O   UNL     1      25.386  -0.544 -21.444  0.00  0.00    -0.448 OA
ATOM     14  C   UNL     1      24.332   0.690 -19.884  0.00  0.00    +0.026 A 
ATOM     15  C   UNL     1      24.091  -0.937 -21.410  0.00  0.00    +0.154 A 
ATOM     16  C   UNL     1      23.396  -0.214 -20.458  0.00  0.00    +0.112 A 
ATOM     17  C   UNL     1      24.039   1.692 -18.838  0.00  0.00    +0.050 C 
ATOM     18  C   UNL     1      23.476  -1.929 -22.172  0.00  0.00    +0.050 A 
ATOM     19  N   UNL     1      22.076  -0.403 -20.182  0.00  0.00    -0.251 NA
ATOM     20  C   UNL     1      22.124  -2.130 -21.880  0.00  0.00    +0.023 A 
ATOM     21  C   UNL     1      21.486  -1.374 -20.915  0.00  0.00    +0.111 A 
ENDBRANCH  10  12
BRANCH   2  22
ATOM     22  C   UNL     1      30.633   6.850 -22.433  0.00  0.00    +0.251 C 
ATOM     23  O   UNL     1      30.938   7.434 -21.421  0.00  0.00    -0.270 OA
ATOM     24  N   UNL     1      31.124   7.251 -23.666  0.00  0.00    -0.307 N 
ATOM     25  H   UNL     1      30.863   6.754 -24.475  0.00  0.00    +0.149 HD
BRANCH  24  26
ATOM     26  C   UNL     1      32.014   8.391 -23.787  0.00  0.00    +0.139 C 
BRANCH  26  27
ATOM     27  C   UNL     1      33.105   8.240 -24.830  0.00  0.00    -0.030 A 
ATOM     28  C   UNL     1      34.446   8.352 -24.480  0.00  0.00    +0.007 A 
ATOM     29  C   UNL     1      32.809   7.929 -26.168  0.00  0.00    +0.007 A 
ATOM     30  C   UNL     1      35.464   8.154 -25.424  0.00  0.00    +0.023 A 
ATOM     31  C   UNL     1      33.831   7.673 -27.093  0.00  0.00    +0.023 A 
ATOM     32  C   UNL     1      35.169   7.842 -26.759  0.00  0.00    +0.030 A 
BRANCH  32  33
ATOM     33  N   UNL     1      36.164   7.808 -27.708  0.00  0.00    -0.333 N 
ATOM     34  C   UNL     1      37.388   7.015 -27.573  0.00  0.00    +0.086 C 
ATOM     35  C   UNL     1      35.853   8.279 -29.067  0.00  0.00    +0.086 C 
ATOM     36  C   UNL     1      38.568   7.799 -28.205  0.00  0.00    -0.060 C 
ATOM     37  C   UNL     1      37.079   9.012 -29.644  0.00  0.00    -0.060 C 
ATOM     38  N   UNL     1      38.287   8.160 -29.618  0.00  0.00    +0.380 N 
ATOM     39  C   UNL     1      39.417   8.849 -30.222  0.00  0.00    -0.096 C 
ATOM     40  H   UNL     1      38.131   7.311 -30.163  0.00  0.00    -0.082 HD
ENDBRANCH  32  33
ENDBRANCH  26  27
ENDBRANCH  24  26
ENDBRANCH   2  22
TORSDOF 5
ENDMDL
MODEL 2
REMARK VINA RESULT:    -9.884      3.134      5.914
REMARK INTER + INTRA:         -13.318
REMARK INTER:                 -13.081
REMARK INTRA:                  -0.237
REMARK UNBOUND:                -0.544
REMARK  Name = CTX-1020744
REMARK  7 active torsions:
REMARK  status: ('A' for Active; 'I' for Inactive)
REMARK    1  A    between atoms: C_2  and  C_4
REMARK    2  A    between atoms: N_9  and  C_12
REMARK    3  A    between atoms: C_12  and  C_14
REMARK    4  A    between atoms: C_15  and  C_19
REMARK    5  A    between atoms: C_23  and  C_27
REMARK    6  A    between atoms: C_24  and  N_28
REMARK    7  A    between atoms: N_37  and  C_38
REMARK                            x       y       z     vdW  Elec       q    Type
REMARK                         _______ _______ _______ _____ _____    ______ ____
ROOT
ATOM      1  S   UNL     1      26.033   3.024 -16.849  0.00  0.00    -0.088 S 
ATOM      2  C   UNL     1      27.265   2.801 -18.023  0.00  0.00    +0.074 A 
ATOM      3  C   UNL     1      24.869   2.242 -17.820  0.00  0.00    -0.003 A 
ATOM      4  C   UNL     1      26.768   2.127 -19.130  0.00  0.00    +0.026 A 
ATOM      5  C   UNL     1      25.387   1.779 -19.013  0.00  0.00    -0.019 A 
ATOM      6  C   UNL     1      23.435   2.055 -17.418  0.00  0.00    +0.062 C 
ATOM      7  C   UNL     1      24.557   1.057 -20.051  0.00  0.00    +0.144 C 
ATOM      8  C   UNL     1      22.612   1.710 -18.673  0.00  0.00    +0.113 C 
ATOM      9  N   UNL     1      23.273   0.653 -19.460  0.00  0.00    -0.290 N 
ATOM     10  C   UNL     1      22.831  -0.671 -19.589  0.00  0.00    +0.283 C 
ATOM     11  O   UNL     1      23.525  -1.511 -20.165  0.00  0.00    -0.267 OA
ENDROOT
BRANCH  10  12
ATOM     12  C   UNL     1      21.525  -1.026 -19.023  0.00  0.00    +0.195 A 
ATOM     13  O   UNL     1      21.152  -0.547 -17.787  0.00  0.00    -0.448 OA
ATOM     14  C   UNL     1      20.497  -1.812 -19.531  0.00  0.00    +0.026 A 
ATOM     15  C   UNL     1      19.906  -1.004 -17.523  0.00  0.00    +0.154 A 
ATOM     16  C   UNL     1      19.449  -1.783 -18.571  0.00  0.00    +0.112 A 
ATOM     17  C   UNL     1      20.480  -2.549 -20.812  0.00  0.00    +0.050 C 
ATOM     18  C   UNL     1      19.122  -0.756 -16.397  0.00  0.00    +0.050 A 
ATOM     19  N   UNL     1      18.217  -2.365 -18.598  0.00  0.00    -0.251 NA
ATOM     20  C   UNL     1      17.854  -1.344 -16.432  0.00  0.00    +0.023 A 
ATOM     21  C   UNL     1      17.456  -2.111 -17.509  0.00  0.00    +0.111 A 
ENDBRANCH  10  12
BRANCH   2  22
ATOM     22  C   UNL     1      28.658   3.254 -17.876  0.00  0.00    +0.251 C 
ATOM     23  O   UNL     1      29.468   2.643 -17.219  0.00  0.00    -0.270 OA
ATOM     24  N   UNL     1      29.004   4.427 -18.528  0.00  0.00    -0.307 N 
ATOM     25  H   UNL     1      28.326   4.902 -19.060  0.00  0.00    +0.149 HD
BRANCH  24  26
ATOM     26  C   UNL     1      30.348   4.969 -18.440  0.00  0.00    +0.139 C 
BRANCH  26  27
ATOM     27  C   UNL     1      30.851   5.636 -19.706  0.00  0.00    -0.030 A 
ATOM     28  C   UNL     1      30.092   5.619 -20.870  0.00  0.00    +0.007 A 
ATOM     29  C   UNL     1      32.067   6.338 -19.736  0.00  0.00    +0.007 A 
ATOM     30  C   UNL     1      30.519   6.284 -22.028  0.00  0.00    +0.023 A 
ATOM     31  C   UNL     1      32.461   7.052 -20.878  0.00  0.00    +0.023 A 
ATOM     32  C   UNL     1      31.732   6.987 -22.059  0.00  0.00    +0.030 A 
BRANCH  32  33
ATOM     33  N   UNL     1      32.217   7.498 -23.240  0.00  0.00    -0.333 N 
ATOM     34  C   UNL     1      31.390   7.723 -24.428  0.00  0.00    +0.086 C 
ATOM     35  C   UNL     1      33.514   8.193 -23.223  0.00  0.00    +0.086 C 
ATOM     36  C   UNL     1      32.233   7.418 -25.693  0.00  0.00    -0.060 C 
ATOM     37  C   UNL     1      34.278   7.875 -24.523  0.00  0.00    -0.060 C 
ATOM     38  N   UNL     1      33.483   8.220 -25.722  0.00  0.00    +0.380 N 
ATOM     39  C   UNL     1      34.245   7.969 -26.935  0.00  0.00    -0.096 C 
ATOM     40  H   UNL     1      33.252   9.214 -25.717  0.00  0.00    -0.082 HD
ENDBRANCH  32  33
ENDBRANCH  26  27
ENDBRANCH  24  26
ENDBRANCH   2  22
TORSDOF 5
ENDMDL
MODEL 3
REMARK VINA RESULT:    -9.846      4.674      7.785
REMARK INTER + INTRA:         -13.268
REMARK INTER:                 -13.146
REMARK INTRA:                  -0.122
REMARK UNBOUND:                -0.544
REMARK  Name = CTX-1020744
REMARK  7 active torsions:
REMARK  status: ('A' for Active; 'I' for Inactive)
REMARK    1  A    between atoms: C_2  and  C_4
REMARK    2  A    between atoms: N_9  and  C_12
REMARK    3  A    between atoms: C_12  and  C_14
REMARK    4  A    between atoms: C_15  and  C_19
REMARK    5  A    between atoms: C_23  and  C_27
REMARK    6  A    between atoms: C_24  and  N_28
REMARK    7  A    between atoms: N_37  and  C_38
REMARK                            x       y       z     vdW  Elec       q    Type
REMARK                         _______ _______ _______ _____ _____    ______ ____
ROOT
ATOM      1  S   UNL     1      35.285   7.995 -24.961  0.00  0.00    -0.088 S 
ATOM      2  C   UNL     1      34.587   8.109 -26.523  0.00  0.00    +0.074 A 
ATOM      3  C   UNL     1      33.763   7.794 -24.219  0.00  0.00    -0.003 A 
ATOM      4  C   UNL     1      33.206   7.983 -26.453  0.00  0.00    +0.026 A 
ATOM      5  C   UNL     1      32.721   7.777 -25.125  0.00  0.00    -0.019 A 
ATOM      6  C   UNL     1      33.569   7.630 -22.739  0.00  0.00    +0.062 C 
ATOM      7  C   UNL     1      31.273   7.618 -24.718  0.00  0.00    +0.144 C 
ATOM      8  C   UNL     1      32.091   7.899 -22.402  0.00  0.00    +0.113 C 
ATOM      9  N   UNL     1      31.201   7.166 -23.321  0.00  0.00    -0.290 N 
ATOM     10  C   UNL     1      30.411   6.057 -22.986  0.00  0.00    +0.283 C 
ATOM     11  O   UNL     1      29.800   5.436 -23.858  0.00  0.00    -0.267 OA
ENDROOT
BRANCH  10  12
ATOM     12  C   UNL     1      30.330   5.661 -21.576  0.00  0.00    +0.195 A 
ATOM     13  O   UNL     1      30.371   6.616 -20.585  0.00  0.00    -0.448 OA
ATOM     14  C   UNL     1      30.203   4.407 -20.989  0.00  0.00    +0.026 A 
ATOM     15  C   UNL     1      30.254   5.984 -19.393  0.00  0.00    +0.154 A 
ATOM     16  C   UNL     1      30.138   4.619 -19.585  0.00  0.00    +0.112 A 
ATOM     17  C   UNL     1      30.151   3.097 -21.672  0.00  0.00    +0.050 C 
ATOM     18  C   UNL     1      30.226   6.552 -18.121  0.00  0.00    +0.050 A 
ATOM     19  N   UNL     1      29.986   3.724 -18.569  0.00  0.00    -0.251 NA
ATOM     20  C   UNL     1      30.057   5.634 -17.080  0.00  0.00    +0.023 A 
ATOM     21  C   UNL     1      29.946   4.281 -17.336  0.00  0.00    +0.111 A 
ENDBRANCH  10  12
BRANCH   2  22
ATOM     22  C   UNL     1      35.345   8.306 -27.771  0.00  0.00    +0.251 C 
ATOM     23  O   UNL     1      34.929   8.989 -28.676  0.00  0.00    -0.270 OA
ATOM     24  N   UNL     1      36.569   7.663 -27.864  0.00  0.00    -0.307 N 
ATOM     25  H   UNL     1      36.887   7.116 -27.110  0.00  0.00    +0.149 HD
BRANCH  24  26
ATOM     26  C   UNL     1      37.392   7.781 -29.054  0.00  0.00    +0.139 C 
BRANCH  26  27
ATOM     27  C   UNL     1      38.024   9.145 -29.260  0.00  0.00    -0.030 A 
ATOM     28  C   UNL     1      37.909   9.806 -30.478  0.00  0.00    +0.007 A 
ATOM     29  C   UNL     1      38.694   9.812 -28.222  0.00  0.00    +0.007 A 
ATOM     30  C   UNL     1      38.436  11.092 -30.660  0.00  0.00    +0.023 A 
ATOM     31  C   UNL     1      39.166  11.122 -28.391  0.00  0.00    +0.023 A 
ATOM     32  C   UNL     1      39.104  11.760 -29.624  0.00  0.00    +0.030 A 
BRANCH  32  33
ATOM     33  N   UNL     1      39.754  12.949 -29.859  0.00  0.00    -0.333 N 
ATOM     34  C   UNL     1      39.091  14.148 -30.375  0.00  0.00    +0.086 C 
ATOM     35  C   UNL     1      41.071  13.163 -29.238  0.00  0.00    +0.086 C 
ATOM     36  C   UNL     1      40.067  14.897 -31.319  0.00  0.00    -0.060 C 
ATOM     37  C   UNL     1      41.973  13.942 -30.215  0.00  0.00    -0.060 C 
ATOM     38  N   UNL     1      41.348  15.215 -30.637  0.00  0.00    +0.380 N 
ATOM     39  C   UNL     1      42.241  15.962 -31.509  0.00  0.00    -0.096 C 
ATOM     40  H   UNL     1      41.166  15.804 -29.824  0.00  0.00    -0.082 HD
ENDBRANCH  32  33
ENDBRANCH  26  27
ENDBRANCH  24  26
ENDBRANCH   2  22
TORSDOF 5
ENDMDL
MODEL 4
REMARK VINA RESULT:    -9.812      4.101      6.195
REMARK INTER + INTRA:         -13.224
REMARK INTER:                 -12.971
REMARK INTRA:                  -0.253
REMARK UNBOUND:                -0.544
REMARK  Name = CTX-1020744
REMARK  7 active torsions:
REMARK  status: ('A' for Active; 'I' for Inactive)
REMARK    1  A    between atoms: C_2  and  C_4
REMARK    2  A    between atoms: N_9  and  C_12
REMARK    3  A    between atoms: C_12  and  C_14
REMARK    4  A    between atoms: C_15  and  C_19
REMARK    5  A    between atoms: C_23  and  C_27
REMARK    6  A    between atoms: C_24  and  N_28
REMARK    7  A    between atoms: N_37  and  C_38
REMARK                            x       y       z     vdW  Elec       q    Type
REMARK                         _______ _______ _______ _____ _____    ______ ____
ROOT
ATOM      1  S   UNL     1      27.290   3.054 -18.442  0.00  0.00    -0.088 S 
ATOM      2  C   UNL     1      28.150   3.679 -17.096  0.00  0.00    +0.074 A 
ATOM      3  C   UNL     1      25.936   2.661 -17.484  0.00  0.00    -0.003 A 
ATOM      4  C   UNL     1      27.386   3.584 -15.941  0.00  0.00    +0.026 A 
ATOM      5  C   UNL     1      26.093   3.017 -16.159  0.00  0.00    -0.019 A 
ATOM      6  C   UNL     1      24.691   2.015 -18.020  0.00  0.00    +0.062 C 
ATOM      7  C   UNL     1      25.037   2.770 -15.104  0.00  0.00    +0.144 C 
ATOM      8  C   UNL     1      23.888   1.437 -16.840  0.00  0.00    +0.113 C 
ATOM      9  N   UNL     1      23.764   2.426 -15.755  0.00  0.00    -0.290 N 
ATOM     10  C   UNL     1      22.590   3.101 -15.390  0.00  0.00    +0.283 C 
ATOM     11  O   UNL     1      22.620   4.003 -14.552  0.00  0.00    -0.267 OA
ENDROOT
BRANCH  10  12
ATOM     12  C   UNL     1      21.332   2.701 -16.029  0.00  0.00    +0.195 A 
ATOM     13  O   UNL     1      21.288   2.465 -17.385  0.00  0.00    -0.448 OA
ATOM     14  C   UNL     1      20.067   2.487 -15.493  0.00  0.00    +0.026 A 
ATOM     15  C   UNL     1      20.025   2.092 -17.702  0.00  0.00    +0.154 A 
ATOM     16  C   UNL     1      19.231   2.080 -16.569  0.00  0.00    +0.112 A 
ATOM     17  C   UNL     1      19.649   2.654 -14.085  0.00  0.00    +0.050 C 
ATOM     18  C   UNL     1      19.525   1.737 -18.953  0.00  0.00    +0.050 A 
ATOM     19  N   UNL     1      17.916   1.726 -16.573  0.00  0.00    -0.251 NA
ATOM     20  C   UNL     1      18.178   1.362 -18.954  0.00  0.00    +0.023 A 
ATOM     21  C   UNL     1      17.438   1.370 -17.788  0.00  0.00    +0.111 A 
ENDBRANCH  10  12
BRANCH   2  22
ATOM     22  C   UNL     1      29.509   4.245 -17.155  0.00  0.00    +0.251 C 
ATOM     23  O   UNL     1      30.437   3.755 -16.555  0.00  0.00    -0.270 OA
ATOM     24  N   UNL     1      29.679   5.378 -17.934  0.00  0.00    -0.307 N 
ATOM     25  H   UNL     1      28.907   5.753 -18.417  0.00  0.00    +0.149 HD
BRANCH  24  26
ATOM     26  C   UNL     1      30.974   6.022 -18.053  0.00  0.00    +0.139 C 
BRANCH  26  27
ATOM     27  C   UNL     1      31.354   6.437 -19.462  0.00  0.00    -0.030 A 
ATOM     28  C   UNL     1      32.688   6.570 -19.830  0.00  0.00    +0.007 A 
ATOM     29  C   UNL     1      30.384   6.645 -20.456  0.00  0.00    +0.007 A 
ATOM     30  C   UNL     1      33.052   6.893 -21.145  0.00  0.00    +0.023 A 
ATOM     31  C   UNL     1      30.755   6.908 -21.783  0.00  0.00    +0.023 A 
ATOM     32  C   UNL     1      32.084   7.100 -22.139  0.00  0.00    +0.030 A 
BRANCH  32  33
ATOM     33  N   UNL     1      32.442   7.571 -23.380  0.00  0.00    -0.333 N 
ATOM     34  C   UNL     1      31.525   7.638 -24.519  0.00  0.00    +0.086 C 
ATOM     35  C   UNL     1      33.667   8.379 -23.496  0.00  0.00    +0.086 C 
ATOM     36  C   UNL     1      32.311   7.324 -25.819  0.00  0.00    -0.060 C 
ATOM     37  C   UNL     1      34.374   8.043 -24.823  0.00  0.00    -0.060 C 
ATOM     38  N   UNL     1      33.476   8.231 -25.984  0.00  0.00    +0.380 N 
ATOM     39  C   UNL     1      34.180   7.968 -27.229  0.00  0.00    -0.096 C 
ATOM     40  H   UNL     1      33.153   9.198 -26.025  0.00  0.00    -0.082 HD
ENDBRANCH  32  33
ENDBRANCH  26  27
ENDBRANCH  24  26
ENDBRANCH   2  22
TORSDOF 5
ENDMDL
MODEL 5
REMARK VINA RESULT:    -9.622      3.666     14.146
REMARK INTER + INTRA:         -12.978
REMARK INTER:                 -14.178
REMARK INTRA:                   1.200
REMARK UNBOUND:                -0.544
REMARK  Name = CTX-1020744
REMARK  7 active torsions:
REMARK  status: ('A' for Active; 'I' for Inactive)
REMARK    1  A    between atoms: C_2  and  C_4
REMARK    2  A    between atoms: N_9  and  C_12
REMARK    3  A    between atoms: C_12  and  C_14
REMARK    4  A    between atoms: C_15  and  C_19
REMARK    5  A    between atoms: C_23  and  C_27
REMARK    6  A    between atoms: C_24  and  N_28
REMARK    7  A    between atoms: N_37  and  C_38
REMARK                            x       y       z     vdW  Elec       q    Type
REMARK                         _______ _______ _______ _____ _____    ______ ____
ROOT
ATOM      1  S   UNL     1      30.196   3.951 -20.461  0.00  0.00    -0.088 S 
ATOM      2  C   UNL     1      29.899   4.849 -19.029  0.00  0.00    +0.074 A 
ATOM      3  C   UNL     1      30.686   5.343 -21.315  0.00  0.00    -0.003 A 
ATOM      4  C   UNL     1      30.187   6.193 -19.226  0.00  0.00    +0.026 A 
ATOM      5  C   UNL     1      30.665   6.486 -20.540  0.00  0.00    -0.019 A 
ATOM      6  C   UNL     1      31.115   5.333 -22.754  0.00  0.00    +0.062 C 
ATOM      7  C   UNL     1      31.049   7.851 -21.067  0.00  0.00    +0.144 C 
ATOM      8  C   UNL     1      31.071   6.775 -23.292  0.00  0.00    +0.113 C 
ATOM      9  N   UNL     1      31.734   7.704 -22.360  0.00  0.00    -0.290 N 
ATOM     10  C   UNL     1      32.964   8.343 -22.573  0.00  0.00    +0.283 C 
ATOM     11  O   UNL     1      33.493   9.001 -21.676  0.00  0.00    -0.267 OA
ENDROOT
BRANCH  10  12
ATOM     12  C   UNL     1      33.597   8.209 -23.889  0.00  0.00    +0.195 A 
ATOM     13  O   UNL     1      34.969   8.255 -24.006  0.00  0.00    -0.448 OA
ATOM     14  C   UNL     1      33.044   8.021 -25.150  0.00  0.00    +0.026 A 
ATOM     15  C   UNL     1      35.281   8.083 -25.312  0.00  0.00    +0.154 A 
ATOM     16  C   UNL     1      34.130   7.924 -26.063  0.00  0.00    +0.112 A 
ATOM     17  C   UNL     1      31.609   7.943 -25.499  0.00  0.00    +0.050 C 
ATOM     18  C   UNL     1      36.548   8.038 -25.892  0.00  0.00    +0.050 A 
ATOM     19  N   UNL     1      34.130   7.712 -27.408  0.00  0.00    -0.251 NA
ATOM     20  C   UNL     1      36.546   7.809 -27.271  0.00  0.00    +0.023 A 
ATOM     21  C   UNL     1      35.361   7.658 -27.965  0.00  0.00    +0.111 A 
ENDBRANCH  10  12
BRANCH   2  22
ATOM     22  C   UNL     1      29.413   4.276 -17.763  0.00  0.00    +0.251 C 
ATOM     23  O   UNL     1      29.536   4.850 -16.706  0.00  0.00    -0.270 OA
ATOM     24  N   UNL     1      28.805   3.032 -17.835  0.00  0.00    -0.307 N 
ATOM     25  H   UNL     1      28.713   2.589 -18.708  0.00  0.00    +0.149 HD
BRANCH  24  26
ATOM     26  C   UNL     1      28.300   2.372 -16.644  0.00  0.00    +0.139 C 
BRANCH  26  27
ATOM     27  C   UNL     1      26.795   2.439 -16.467  0.00  0.00    -0.030 A 
ATOM     28  C   UNL     1      26.238   2.837 -15.258  0.00  0.00    +0.007 A 
ATOM     29  C   UNL     1      25.915   2.157 -17.525  0.00  0.00    +0.007 A 
ATOM     30  C   UNL     1      24.850   2.962 -15.102  0.00  0.00    +0.023 A 
ATOM     31  C   UNL     1      24.532   2.341 -17.382  0.00  0.00    +0.023 A 
ATOM     32  C   UNL     1      23.970   2.683 -16.158  0.00  0.00    +0.030 A 
BRANCH  32  33
ATOM     33  N   UNL     1      22.611   2.653 -15.949  0.00  0.00    -0.333 N 
ATOM     34  C   UNL     1      21.809   3.841 -15.649  0.00  0.00    +0.086 C 
ATOM     35  C   UNL     1      21.859   1.470 -16.398  0.00  0.00    +0.086 C 
ATOM     36  C   UNL     1      20.685   3.450 -14.654  0.00  0.00    -0.060 C 
ATOM     37  C   UNL     1      20.739   1.165 -15.385  0.00  0.00    -0.060 C 
ATOM     38  N   UNL     1      19.857   2.334 -15.178  0.00  0.00    +0.380 N 
ATOM     39  C   UNL     1      18.772   2.006 -14.266  0.00  0.00    -0.096 C 
ATOM     40  H   UNL     1      19.428   2.612 -16.061  0.00  0.00    -0.082 HD
ENDBRANCH  32  33
ENDBRANCH  26  27
ENDBRANCH  24  26
ENDBRANCH   2  22
TORSDOF 5
ENDMDL
