MODEL 1
REMARK VINA RESULT:   -10.705      0.000      0.000
REMARK INTER + INTRA:         -14.460
REMARK INTER:                 -13.834
REMARK INTRA:                  -0.626
REMARK UNBOUND:                -0.626
REMARK  Name = CTX-1020741
REMARK  7 active torsions:
REMARK  status: ('A' for Active; 'I' for Inactive)
REMARK    1  A    between atoms: C_2  and  C_4
REMARK    2  A    between atoms: N_9  and  C_12
REMARK    3  A    between atoms: C_12  and  C_14
REMARK    4  A    between atoms: C_15  and  C_19
REMARK    5  A    between atoms: C_23  and  C_27
REMARK    6  A    between atoms: C_24  and  O_28
REMARK    7  A    between atoms: O_28  and  C_31
REMARK                            x       y       z     vdW  Elec       q    Type
REMARK                         _______ _______ _______ _____ _____    ______ ____
ROOT
ATOM      1  S   UNL     1      27.927   5.327 -24.045  0.00  0.00    -0.088 S 
ATOM      2  C   UNL     1      29.046   5.260 -22.748  0.00  0.00    +0.074 A 
ATOM      3  C   UNL     1      27.344   3.761 -23.715  0.00  0.00    -0.003 A 
ATOM      4  C   UNL     1      28.966   4.036 -22.099  0.00  0.00    +0.026 A 
ATOM      5  C   UNL     1      27.980   3.153 -22.649  0.00  0.00    -0.019 A 
ATOM      6  C   UNL     1      26.215   3.145 -24.481  0.00  0.00    +0.062 C 
ATOM      7  C   UNL     1      27.635   1.758 -22.169  0.00  0.00    +0.144 C 
ATOM      8  C   UNL     1      26.127   1.643 -24.166  0.00  0.00    +0.113 C 
ATOM      9  N   UNL     1      26.352   1.342 -22.747  0.00  0.00    -0.290 N 
ATOM     10  C   UNL     1      25.521   0.473 -22.028  0.00  0.00    +0.283 C 
ATOM     11  O   UNL     1      25.980  -0.279 -21.167  0.00  0.00    -0.267 OA
ENDROOT
BRANCH  10  12
ATOM     12  C   UNL     1      24.071   0.726 -22.168  0.00  0.00    +0.194 A 
ATOM     13  O   UNL     1      23.446   1.036 -20.972  0.00  0.00    -0.450 OA
ATOM     14  C   UNL     1      23.124   0.003 -22.904  0.00  0.00    +0.008 A 
ATOM     15  C   UNL     1      22.730  -0.087 -20.708  0.00  0.00    +0.136 A 
ATOM     16  C   UNL     1      22.538  -0.804 -21.880  0.00  0.00    +0.024 A 
ATOM     17  C   UNL     1      22.957  -0.143 -24.368  0.00  0.00    +0.048 C 
ATOM     18  C   UNL     1      22.346  -0.493 -19.446  0.00  0.00    +0.047 A 
ATOM     19  C   UNL     1      21.925  -2.062 -21.795  0.00  0.00    +0.012 A 
ATOM     20  C   UNL     1      21.838  -1.791 -19.363  0.00  0.00    +0.004 A 
ATOM     21  C   UNL     1      21.640  -2.564 -20.515  0.00  0.00    +0.001 A 
ENDBRANCH  10  12
BRANCH   2  22
ATOM     22  C   UNL     1      29.941   6.365 -22.404  0.00  0.00    +0.251 C 
ATOM     23  O   UNL     1      30.153   6.686 -21.235  0.00  0.00    -0.270 OA
ATOM     24  N   UNL     1      30.539   7.039 -23.449  0.00  0.00    -0.307 N 
ATOM     25  H   UNL     1      30.316   6.777 -24.372  0.00  0.00    +0.149 HD
BRANCH  24  26
ATOM     26  C   UNL     1      31.483   8.120 -23.240  0.00  0.00    +0.139 C 
BRANCH  26  27
ATOM     27  C   UNL     1      32.624   8.090 -24.227  0.00  0.00    -0.030 A 
ATOM     28  C   UNL     1      32.394   7.749 -25.567  0.00  0.00    +0.009 A 
ATOM     29  C   UNL     1      33.918   8.479 -23.849  0.00  0.00    +0.009 A 
ATOM     30  C   UNL     1      33.435   7.780 -26.507  0.00  0.00    +0.046 A 
ATOM     31  C   UNL     1      34.952   8.509 -24.789  0.00  0.00    +0.046 A 
ATOM     32  C   UNL     1      34.721   8.160 -26.120  0.00  0.00    +0.120 A 
BRANCH  32  33
ATOM     33  O   UNL     1      35.817   8.239 -26.935  0.00  0.00    -0.495 OA
ATOM     34  C   UNL     1      35.660   7.788 -28.276  0.00  0.00    +0.277 C 
ENDBRANCH  32  33
ENDBRANCH  26  27
ENDBRANCH  24  26
ENDBRANCH   2  22
TORSDOF 5
ENDMDL
MODEL 2
REMARK VINA RESULT:   -10.397      5.482      7.678
REMARK INTER + INTRA:         -14.062
REMARK INTER:                 -13.620
REMARK INTRA:                  -0.442
REMARK UNBOUND:                -0.626
REMARK  Name = CTX-1020741
REMARK  7 active torsions:
REMARK  status: ('A' for Active; 'I' for Inactive)
REMARK    1  A    between atoms: C_2  and  C_4
REMARK    2  A    between atoms: N_9  and  C_12
REMARK    3  A    between atoms: C_12  and  C_14
REMARK    4  A    between atoms: C_15  and  C_19
REMARK    5  A    between atoms: C_23  and  C_27
REMARK    6  A    between atoms: C_24  and  O_28
REMARK    7  A    between atoms: O_28  and  C_31
REMARK                            x       y       z     vdW  Elec       q    Type
REMARK                         _______ _______ _______ _____ _____    ______ ____
ROOT
ATOM      1  S   UNL     1      23.788  -0.152 -22.817  0.00  0.00    -0.088 S 
ATOM      2  C   UNL     1      25.097   0.881 -22.419  0.00  0.00    +0.074 A 
ATOM      3  C   UNL     1      23.226  -0.176 -21.210  0.00  0.00    -0.003 A 
ATOM      4  C   UNL     1      25.090   1.173 -21.062  0.00  0.00    +0.026 A 
ATOM      5  C   UNL     1      24.008   0.566 -20.344  0.00  0.00    -0.019 A 
ATOM      6  C   UNL     1      21.974  -0.891 -20.806  0.00  0.00    +0.062 C 
ATOM      7  C   UNL     1      23.709   0.693 -18.865  0.00  0.00    +0.144 C 
ATOM      8  C   UNL     1      21.900  -0.990 -19.273  0.00  0.00    +0.113 C 
ATOM      9  N   UNL     1      22.341   0.236 -18.599  0.00  0.00    -0.290 N 
ATOM     10  C   UNL     1      21.612   0.812 -17.548  0.00  0.00    +0.283 C 
ATOM     11  O   UNL     1      22.184   1.348 -16.598  0.00  0.00    -0.267 OA
ENDROOT
BRANCH  10  12
ATOM     12  C   UNL     1      20.166   0.980 -17.801  0.00  0.00    +0.194 A 
ATOM     13  O   UNL     1      19.677   2.216 -17.411  0.00  0.00    -0.450 OA
ATOM     14  C   UNL     1      19.124   0.076 -17.557  0.00  0.00    +0.008 A 
ATOM     15  C   UNL     1      18.953   1.916 -16.303  0.00  0.00    +0.136 A 
ATOM     16  C   UNL     1      18.618   0.570 -16.315  0.00  0.00    +0.024 A 
ATOM     17  C   UNL     1      18.804  -1.214 -18.208  0.00  0.00    +0.048 C 
ATOM     18  C   UNL     1      18.686   2.801 -15.278  0.00  0.00    +0.047 A 
ATOM     19  C   UNL     1      17.973   0.037 -15.189  0.00  0.00    +0.012 A 
ATOM     20  C   UNL     1      18.144   2.234 -14.123  0.00  0.00    +0.004 A 
ATOM     21  C   UNL     1      17.803   0.876 -14.076  0.00  0.00    +0.001 A 
ENDBRANCH  10  12
BRANCH   2  22
ATOM     22  C   UNL     1      26.062   1.367 -23.404  0.00  0.00    +0.251 C 
ATOM     23  O   UNL     1      26.891   0.621 -23.923  0.00  0.00    -0.270 OA
ATOM     24  N   UNL     1      26.008   2.708 -23.729  0.00  0.00    -0.307 N 
ATOM     25  H   UNL     1      25.355   3.282 -23.266  0.00  0.00    +0.149 HD
BRANCH  24  26
ATOM     26  C   UNL     1      26.876   3.303 -24.726  0.00  0.00    +0.139 C 
BRANCH  26  27
ATOM     27  C   UNL     1      26.308   3.205 -26.121  0.00  0.00    -0.030 A 
ATOM     28  C   UNL     1      25.297   4.081 -26.539  0.00  0.00    +0.009 A 
ATOM     29  C   UNL     1      26.830   2.294 -27.051  0.00  0.00    +0.009 A 
ATOM     30  C   UNL     1      24.807   4.041 -27.852  0.00  0.00    +0.046 A 
ATOM     31  C   UNL     1      26.339   2.258 -28.360  0.00  0.00    +0.046 A 
ATOM     32  C   UNL     1      25.326   3.126 -28.769  0.00  0.00    +0.120 A 
BRANCH  32  33
ATOM     33  O   UNL     1      24.943   2.989 -30.075  0.00  0.00    -0.495 OA
ATOM     34  C   UNL     1      24.073   3.985 -30.602  0.00  0.00    +0.277 C 
ENDBRANCH  32  33
ENDBRANCH  26  27
ENDBRANCH  24  26
ENDBRANCH   2  22
TORSDOF 5
ENDMDL
MODEL 3
REMARK VINA RESULT:   -10.376      3.175      5.354
REMARK INTER + INTRA:         -14.035
REMARK INTER:                 -13.343
REMARK INTRA:                  -0.692
REMARK UNBOUND:                -0.626
REMARK  Name = CTX-1020741
REMARK  7 active torsions:
REMARK  status: ('A' for Active; 'I' for Inactive)
REMARK    1  A    between atoms: C_2  and  C_4
REMARK    2  A    between atoms: N_9  and  C_12
REMARK    3  A    between atoms: C_12  and  C_14
REMARK    4  A    between atoms: C_15  and  C_19
REMARK    5  A    between atoms: C_23  and  C_27
REMARK    6  A    between atoms: C_24  and  O_28
REMARK    7  A    between atoms: O_28  and  C_31
REMARK                            x       y       z     vdW  Elec       q    Type
REMARK                         _______ _______ _______ _____ _____    ______ ____
ROOT
ATOM      1  S   UNL     1      24.935   0.891 -23.528  0.00  0.00    -0.088 S 
ATOM      2  C   UNL     1      25.649   2.334 -22.942  0.00  0.00    +0.074 A 
ATOM      3  C   UNL     1      24.283   0.510 -22.002  0.00  0.00    -0.003 A 
ATOM      4  C   UNL     1      25.392   2.489 -21.587  0.00  0.00    +0.026 A 
ATOM      5  C   UNL     1      24.598   1.435 -21.025  0.00  0.00    -0.019 A 
ATOM      6  C   UNL     1      23.411  -0.686 -21.775  0.00  0.00    +0.062 C 
ATOM      7  C   UNL     1      24.133   1.310 -19.589  0.00  0.00    +0.144 C 
ATOM      8  C   UNL     1      23.239  -0.929 -20.267  0.00  0.00    +0.113 C 
ATOM      9  N   UNL     1      23.061   0.313 -19.504  0.00  0.00    -0.290 N 
ATOM     10  C   UNL     1      22.062   0.453 -18.530  0.00  0.00    +0.283 C 
ATOM     11  O   UNL     1      22.264   1.098 -17.501  0.00  0.00    -0.267 OA
ENDROOT
BRANCH  10  12
ATOM     12  C   UNL     1      20.708   0.032 -18.950  0.00  0.00    +0.194 A 
ATOM     13  O   UNL     1      19.805   1.077 -19.029  0.00  0.00    -0.450 OA
ATOM     14  C   UNL     1      19.962  -1.071 -18.516  0.00  0.00    +0.008 A 
ATOM     15  C   UNL     1      19.007   0.866 -17.951  0.00  0.00    +0.136 A 
ATOM     16  C   UNL     1      19.103  -0.459 -17.552  0.00  0.00    +0.024 A 
ATOM     17  C   UNL     1      20.177  -2.519 -18.736  0.00  0.00    +0.048 C 
ATOM     18  C   UNL     1      18.294   1.852 -17.298  0.00  0.00    +0.047 A 
ATOM     19  C   UNL     1      18.446  -0.846 -16.375  0.00  0.00    +0.012 A 
ATOM     20  C   UNL     1      17.738   1.478 -16.073  0.00  0.00    +0.004 A 
ATOM     21  C   UNL     1      17.820   0.156 -15.616  0.00  0.00    +0.001 A 
ENDBRANCH  10  12
BRANCH   2  22
ATOM     22  C   UNL     1      26.413   3.251 -23.788  0.00  0.00    +0.251 C 
ATOM     23  O   UNL     1      26.290   3.258 -25.012  0.00  0.00    -0.270 OA
ATOM     24  N   UNL     1      27.285   4.113 -23.153  0.00  0.00    -0.307 N 
ATOM     25  H   UNL     1      27.383   4.054 -22.176  0.00  0.00    +0.149 HD
BRANCH  24  26
ATOM     26  C   UNL     1      28.063   5.103 -23.873  0.00  0.00    +0.139 C 
BRANCH  26  27
ATOM     27  C   UNL     1      29.392   5.383 -23.216  0.00  0.00    -0.030 A 
ATOM     28  C   UNL     1      29.826   4.607 -22.132  0.00  0.00    +0.009 A 
ATOM     29  C   UNL     1      30.256   6.366 -23.721  0.00  0.00    +0.009 A 
ATOM     30  C   UNL     1      31.086   4.817 -21.554  0.00  0.00    +0.046 A 
ATOM     31  C   UNL     1      31.512   6.572 -23.143  0.00  0.00    +0.046 A 
ATOM     32  C   UNL     1      31.936   5.804 -22.058  0.00  0.00    +0.120 A 
BRANCH  32  33
ATOM     33  O   UNL     1      33.186   6.104 -21.593  0.00  0.00    -0.495 OA
ATOM     34  C   UNL     1      33.266   6.928 -20.435  0.00  0.00    +0.277 C 
ENDBRANCH  32  33
ENDBRANCH  26  27
ENDBRANCH  24  26
ENDBRANCH   2  22
TORSDOF 5
ENDMDL
MODEL 4
REMARK VINA RESULT:    -9.915      5.342      7.210
REMARK INTER + INTRA:         -13.439
REMARK INTER:                 -13.484
REMARK INTRA:                   0.044
REMARK UNBOUND:                -0.626
REMARK  Name = CTX-1020741
REMARK  7 active torsions:
REMARK  status: ('A' for Active; 'I' for Inactive)
REMARK    1  A    between atoms: C_2  and  C_4
REMARK    2  A    between atoms: N_9  and  C_12
REMARK    3  A    between atoms: C_12  and  C_14
REMARK    4  A    between atoms: C_15  and  C_19
REMARK    5  A    between atoms: C_23  and  C_27
REMARK    6  A    between atoms: C_24  and  O_28
REMARK    7  A    between atoms: O_28  and  C_31
REMARK                            x       y       z     vdW  Elec       q    Type
REMARK                         _______ _______ _______ _____ _____    ______ ____
ROOT
ATOM      1  S   UNL     1      23.806   0.611 -22.214  0.00  0.00    -0.088 S 
ATOM      2  C   UNL     1      25.225   1.487 -21.816  0.00  0.00    +0.074 A 
ATOM      3  C   UNL     1      23.271   0.605 -20.598  0.00  0.00    -0.003 A 
ATOM      4  C   UNL     1      25.272   1.742 -20.453  0.00  0.00    +0.026 A 
ATOM      5  C   UNL     1      24.142   1.236 -19.729  0.00  0.00    -0.019 A 
ATOM      6  C   UNL     1      21.957   0.018 -20.187  0.00  0.00    +0.062 C 
ATOM      7  C   UNL     1      23.883   1.356 -18.241  0.00  0.00    +0.144 C 
ATOM      8  C   UNL     1      21.897  -0.113 -18.656  0.00  0.00    +0.113 C 
ATOM      9  N   UNL     1      22.478   1.042 -17.960  0.00  0.00    -0.290 N 
ATOM     10  C   UNL     1      21.833   1.664 -16.883  0.00  0.00    +0.283 C 
ATOM     11  O   UNL     1      22.474   2.111 -15.931  0.00  0.00    -0.267 OA
ENDROOT
BRANCH  10  12
ATOM     12  C   UNL     1      20.409   1.993 -17.104  0.00  0.00    +0.194 A 
ATOM     13  O   UNL     1      19.569   1.493 -16.124  0.00  0.00    -0.450 OA
ATOM     14  C   UNL     1      19.671   1.929 -18.292  0.00  0.00    +0.008 A 
ATOM     15  C   UNL     1      18.930   0.480 -16.763  0.00  0.00    +0.136 A 
ATOM     16  C   UNL     1      19.005   0.675 -18.135  0.00  0.00    +0.024 A 
ATOM     17  C   UNL     1      19.763   2.750 -19.521  0.00  0.00    +0.048 C 
ATOM     18  C   UNL     1      18.385  -0.623 -16.137  0.00  0.00    +0.047 A 
ATOM     19  C   UNL     1      18.511  -0.333 -18.975  0.00  0.00    +0.012 A 
ATOM     20  C   UNL     1      17.999  -1.663 -16.984  0.00  0.00    +0.004 A 
ATOM     21  C   UNL     1      18.068  -1.524 -18.377  0.00  0.00    +0.001 A 
ENDBRANCH  10  12
BRANCH   2  22
ATOM     22  C   UNL     1      26.220   1.893 -22.807  0.00  0.00    +0.251 C 
ATOM     23  O   UNL     1      27.156   1.160 -23.123  0.00  0.00    -0.270 OA
ATOM     24  N   UNL     1      26.069   3.142 -23.375  0.00  0.00    -0.307 N 
ATOM     25  H   UNL     1      25.329   3.716 -23.071  0.00  0.00    +0.149 HD
BRANCH  24  26
ATOM     26  C   UNL     1      26.960   3.642 -24.405  0.00  0.00    +0.139 C 
BRANCH  26  27
ATOM     27  C   UNL     1      26.421   3.414 -25.796  0.00  0.00    -0.030 A 
ATOM     28  C   UNL     1      25.571   4.356 -26.391  0.00  0.00    +0.009 A 
ATOM     29  C   UNL     1      26.820   2.303 -26.553  0.00  0.00    +0.009 A 
ATOM     30  C   UNL     1      25.115   4.186 -27.706  0.00  0.00    +0.046 A 
ATOM     31  C   UNL     1      26.365   2.137 -27.865  0.00  0.00    +0.046 A 
ATOM     32  C   UNL     1      25.511   3.072 -28.450  0.00  0.00    +0.120 A 
BRANCH  32  33
ATOM     33  O   UNL     1      25.147   2.793 -29.738  0.00  0.00    -0.495 OA
ATOM     34  C   UNL     1      24.149   3.623 -30.323  0.00  0.00    +0.277 C 
ENDBRANCH  32  33
ENDBRANCH  26  27
ENDBRANCH  24  26
ENDBRANCH   2  22
TORSDOF 5
ENDMDL
MODEL 5
REMARK VINA RESULT:    -9.557      4.747      6.901
REMARK INTER + INTRA:         -12.976
REMARK INTER:                 -13.197
REMARK INTRA:                   0.221
REMARK UNBOUND:                -0.626
REMARK  Name = CTX-1020741
REMARK  7 active torsions:
REMARK  status: ('A' for Active; 'I' for Inactive)
REMARK    1  A    between atoms: C_2  and  C_4
REMARK    2  A    between atoms: N_9  and  C_12
REMARK    3  A    between atoms: C_12  and  C_14
REMARK    4  A    between atoms: C_15  and  C_19
REMARK    5  A    between atoms: C_23  and  C_27
REMARK    6  A    between atoms: C_24  and  O_28
REMARK    7  A    between atoms: O_28  and  C_31
REMARK                            x       y       z     vdW  Elec       q    Type
REMARK                         _______ _______ _______ _____ _____    ______ ____
ROOT
ATOM      1  S   UNL     1      25.698   2.362 -17.880  0.00  0.00    -0.088 S 
ATOM      2  C   UNL     1      26.189   3.574 -16.773  0.00  0.00    +0.074 A 
ATOM      3  C   UNL     1      24.167   2.215 -17.150  0.00  0.00    -0.003 A 
ATOM      4  C   UNL     1      25.181   3.831 -15.854  0.00  0.00    +0.026 A 
ATOM      5  C   UNL     1      23.997   3.048 -16.060  0.00  0.00    -0.019 A 
ATOM      6  C   UNL     1      23.104   1.307 -17.685  0.00  0.00    +0.062 C 
ATOM      7  C   UNL     1      22.719   3.095 -15.247  0.00  0.00    +0.144 C 
ATOM      8  C   UNL     1      21.972   1.163 -16.655  0.00  0.00    +0.113 C 
ATOM      9  N   UNL     1      21.643   2.427 -15.986  0.00  0.00    -0.290 N 
ATOM     10  C   UNL     1      20.320   2.860 -15.819  0.00  0.00    +0.283 C 
ATOM     11  O   UNL     1      19.969   3.456 -14.800  0.00  0.00    -0.267 OA
ENDROOT
BRANCH  10  12
ATOM     12  C   UNL     1      19.481   2.809 -17.036  0.00  0.00    +0.194 A 
ATOM     13  O   UNL     1      18.208   2.317 -16.808  0.00  0.00    -0.450 OA
ATOM     14  C   UNL     1      19.827   2.364 -18.318  0.00  0.00    +0.008 A 
ATOM     15  C   UNL     1      18.255   1.086 -17.379  0.00  0.00    +0.136 A 
ATOM     16  C   UNL     1      19.288   1.040 -18.303  0.00  0.00    +0.024 A 
ATOM     17  C   UNL     1      20.751   2.947 -19.317  0.00  0.00    +0.048 C 
ATOM     18  C   UNL     1      17.457   0.020 -17.012  0.00  0.00    +0.047 A 
ATOM     19  C   UNL     1      19.579  -0.189 -18.912  0.00  0.00    +0.012 A 
ATOM     20  C   UNL     1      17.830  -1.217 -17.542  0.00  0.00    +0.004 A 
ATOM     21  C   UNL     1      18.876  -1.321 -18.467  0.00  0.00    +0.001 A 
ENDBRANCH  10  12
BRANCH   2  22
ATOM     22  C   UNL     1      27.497   4.226 -16.826  0.00  0.00    +0.251 C 
ATOM     23  O   UNL     1      27.681   5.349 -16.358  0.00  0.00    -0.270 OA
ATOM     24  N   UNL     1      28.524   3.528 -17.429  0.00  0.00    -0.307 N 
ATOM     25  H   UNL     1      28.331   2.647 -17.825  0.00  0.00    +0.149 HD
BRANCH  24  26
ATOM     26  C   UNL     1      29.878   4.043 -17.502  0.00  0.00    +0.139 C 
BRANCH  26  27
ATOM     27  C   UNL     1      30.177   4.695 -18.830  0.00  0.00    -0.030 A 
ATOM     28  C   UNL     1      30.635   6.019 -18.884  0.00  0.00    +0.009 A 
ATOM     29  C   UNL     1      30.082   3.972 -20.029  0.00  0.00    +0.009 A 
ATOM     30  C   UNL     1      30.977   6.614 -20.107  0.00  0.00    +0.046 A 
ATOM     31  C   UNL     1      30.424   4.568 -21.246  0.00  0.00    +0.046 A 
ATOM     32  C   UNL     1      30.871   5.889 -21.296  0.00  0.00    +0.120 A 
BRANCH  32  33
ATOM     33  O   UNL     1      31.177   6.346 -22.548  0.00  0.00    -0.495 OA
ATOM     34  C   UNL     1      32.425   7.013 -22.706  0.00  0.00    +0.277 C 
ENDBRANCH  32  33
ENDBRANCH  26  27
ENDBRANCH  24  26
ENDBRANCH   2  22
TORSDOF 5
ENDMDL
