MODEL 1
REMARK VINA RESULT:   -12.452      0.000      0.000
REMARK INTER + INTRA:         -17.191
REMARK INTER:                 -16.091
REMARK INTRA:                  -1.100
REMARK UNBOUND:                -1.100
REMARK  Name = CTX-1020698
REMARK  6 active torsions:
REMARK  status: ('A' for Active; 'I' for Inactive)
REMARK    1  A    between atoms: C_2  and  C_4
REMARK    2  A    between atoms: N_3  and  C_5
REMARK    3  A    between atoms: C_5  and  C_8
REMARK    4  A    between atoms: C_19  and  C_22
REMARK    5  A    between atoms: C_21  and  C_24
REMARK    6  A    between atoms: C_28  and  C_33
REMARK                            x       y       z     vdW  Elec       q    Type
REMARK                         _______ _______ _______ _____ _____    ______ ____
ROOT
ATOM      1  C   UNL     1      29.070   4.810 -22.757  0.00  0.00    +0.126 A 
ATOM      2  N   UNL     1      28.766   3.767 -21.923  0.00  0.00    -0.245 NA
ATOM      3  C   UNL     1      28.379   5.093 -23.929  0.00  0.00    +0.033 A 
ATOM      4  C   UNL     1      27.707   2.972 -22.283  0.00  0.00    +0.063 A 
ATOM      5  C   UNL     1      27.324   4.271 -24.287  0.00  0.00    +0.008 A 
ATOM      6  C   UNL     1      26.980   3.191 -23.469  0.00  0.00    -0.023 A 
ATOM      7  C   UNL     1      27.334   1.794 -21.370  0.00  0.00    +0.163 C 
ATOM      8  C   UNL     1      25.790   2.348 -23.849  0.00  0.00    +0.056 C 
ATOM      9  N   UNL     1      26.022   1.213 -21.681  0.00  0.00    -0.289 N 
ATOM     10  C   UNL     1      25.728   1.028 -23.093  0.00  0.00    +0.113 C 
ATOM     11  C   UNL     1      25.203   0.690 -20.673  0.00  0.00    +0.283 C 
ATOM     12  O   UNL     1      25.679   0.270 -19.619  0.00  0.00    -0.267 OA
ENDROOT
BRANCH  11  13
ATOM     13  C   UNL     1      23.760   0.927 -20.850  0.00  0.00    +0.194 A 
ATOM     14  O   UNL     1      23.286   2.035 -20.179  0.00  0.00    -0.450 OA
ATOM     15  C   UNL     1      22.681   0.046 -20.961  0.00  0.00    +0.008 A 
ATOM     16  C   UNL     1      22.328   1.552 -19.348  0.00  0.00    +0.136 A 
ATOM     17  C   UNL     1      21.991   0.259 -19.730  0.00  0.00    +0.024 A 
ATOM     18  C   UNL     1      22.336  -0.959 -21.992  0.00  0.00    +0.048 C 
ATOM     19  C   UNL     1      21.839   2.223 -18.245  0.00  0.00    +0.047 A 
ATOM     20  C   UNL     1      21.124  -0.467 -18.900  0.00  0.00    +0.012 A 
ATOM     21  C   UNL     1      21.020   1.466 -17.406  0.00  0.00    +0.004 A 
ATOM     22  C   UNL     1      20.687   0.139 -17.712  0.00  0.00    +0.001 A 
ENDBRANCH  11  13
BRANCH   1  24
ATOM     23  O   UNL     1      31.106   5.348 -21.658  0.00  0.00    -0.269 OA
ATOM     24  C   UNL     1      30.205   5.732 -22.400  0.00  0.00    +0.263 C 
ATOM     25  N   UNL     1      30.174   6.996 -22.942  0.00  0.00    -0.306 N 
ATOM     26  H   UNL     1      29.413   7.257 -23.511  0.00  0.00    +0.149 HD
BRANCH  25  27
ATOM     27  C   UNL     1      31.232   7.951 -22.700  0.00  0.00    +0.140 C 
BRANCH  27  28
ATOM     28  C   UNL     1      32.213   8.015 -23.841  0.00  0.00    -0.030 A 
ATOM     29  C   UNL     1      33.554   8.334 -23.606  0.00  0.00    +0.006 A 
ATOM     30  C   UNL     1      31.810   7.747 -25.151  0.00  0.00    +0.006 A 
ATOM     31  C   UNL     1      34.478   8.353 -24.658  0.00  0.00    +0.009 A 
ATOM     32  C   UNL     1      32.743   7.754 -26.200  0.00  0.00    +0.009 A 
ATOM     33  C   UNL     1      34.099   8.051 -25.978  0.00  0.00    -0.018 A 
BRANCH  33  34
ATOM     34  C   UNL     1      35.092   8.041 -27.078  0.00  0.00    -0.015 A 
ATOM     35  C   UNL     1      36.280   7.302 -26.988  0.00  0.00    +0.028 A 
ATOM     36  C   UNL     1      34.898   8.776 -28.261  0.00  0.00    +0.028 A 
ATOM     37  C   UNL     1      37.192   7.336 -28.031  0.00  0.00    +0.111 A 
ATOM     38  C   UNL     1      35.859   8.744 -29.252  0.00  0.00    +0.111 A 
ATOM     39  N   UNL     1      37.005   8.046 -29.161  0.00  0.00    -0.263 NA
ENDBRANCH  33  34
ENDBRANCH  27  28
ENDBRANCH  25  27
ENDBRANCH   1  24
TORSDOF 5
ENDMDL
MODEL 2
REMARK VINA RESULT:   -11.504      3.912      6.255
REMARK INTER + INTRA:         -15.966
REMARK INTER:                 -15.194
REMARK INTRA:                  -0.772
REMARK UNBOUND:                -1.100
REMARK  Name = CTX-1020698
REMARK  6 active torsions:
REMARK  status: ('A' for Active; 'I' for Inactive)
REMARK    1  A    between atoms: C_2  and  C_4
REMARK    2  A    between atoms: N_3  and  C_5
REMARK    3  A    between atoms: C_5  and  C_8
REMARK    4  A    between atoms: C_19  and  C_22
REMARK    5  A    between atoms: C_21  and  C_24
REMARK    6  A    between atoms: C_28  and  C_33
REMARK                            x       y       z     vdW  Elec       q    Type
REMARK                         _______ _______ _______ _____ _____    ______ ____
ROOT
ATOM      1  C   UNL     1      24.314   0.605 -23.308  0.00  0.00    +0.126 A 
ATOM      2  N   UNL     1      24.341   0.868 -21.964  0.00  0.00    -0.245 NA
ATOM      3  C   UNL     1      23.528  -0.382 -23.889  0.00  0.00    +0.033 A 
ATOM      4  C   UNL     1      23.529   0.103 -21.165  0.00  0.00    +0.063 A 
ATOM      5  C   UNL     1      22.728  -1.157 -23.067  0.00  0.00    +0.008 A 
ATOM      6  C   UNL     1      22.726  -0.928 -21.688  0.00  0.00    -0.023 A 
ATOM      7  C   UNL     1      23.529   0.372 -19.652  0.00  0.00    +0.163 C 
ATOM      8  C   UNL     1      21.801  -1.744 -20.823  0.00  0.00    +0.056 C 
ATOM      9  N   UNL     1      22.417  -0.278 -18.948  0.00  0.00    -0.289 N 
ATOM     10  C   UNL     1      22.134  -1.650 -19.340  0.00  0.00    +0.113 C 
ATOM     11  C   UNL     1      21.813   0.321 -17.836  0.00  0.00    +0.283 C 
ATOM     12  O   UNL     1      22.425   1.124 -17.134  0.00  0.00    -0.267 OA
ENDROOT
BRANCH  11  13
ATOM     13  C   UNL     1      20.355   0.136 -17.738  0.00  0.00    +0.194 A 
ATOM     14  O   UNL     1      19.647   1.312 -17.601  0.00  0.00    -0.450 OA
ATOM     15  C   UNL     1      19.584  -0.858 -17.132  0.00  0.00    +0.008 A 
ATOM     16  C   UNL     1      18.974   1.175 -16.430  0.00  0.00    +0.136 A 
ATOM     17  C   UNL     1      19.000  -0.158 -16.034  0.00  0.00    +0.024 A 
ATOM     18  C   UNL     1      19.446  -2.305 -17.415  0.00  0.00    +0.048 C 
ATOM     19  C   UNL     1      18.430   2.222 -15.713  0.00  0.00    +0.047 A 
ATOM     20  C   UNL     1      18.486  -0.476 -14.767  0.00  0.00    +0.012 A 
ATOM     21  C   UNL     1      17.972   1.891 -14.437  0.00  0.00    +0.004 A 
ATOM     22  C   UNL     1      18.020   0.573 -13.961  0.00  0.00    +0.001 A 
ENDBRANCH  11  13
BRANCH   1  24
ATOM     23  O   UNL     1      25.368   1.054 -25.390  0.00  0.00    -0.269 OA
ATOM     24  C   UNL     1      25.164   1.430 -24.237  0.00  0.00    +0.263 C 
ATOM     25  N   UNL     1      25.682   2.600 -23.733  0.00  0.00    -0.306 N 
ATOM     26  H   UNL     1      25.506   2.838 -22.794  0.00  0.00    +0.149 HD
BRANCH  25  27
ATOM     27  C   UNL     1      26.479   3.489 -24.548  0.00  0.00    +0.140 C 
BRANCH  27  28
ATOM     28  C   UNL     1      27.602   4.121 -23.768  0.00  0.00    -0.030 A 
ATOM     29  C   UNL     1      28.357   3.361 -22.869  0.00  0.00    +0.006 A 
ATOM     30  C   UNL     1      27.922   5.471 -23.932  0.00  0.00    +0.006 A 
ATOM     31  C   UNL     1      29.429   3.933 -22.174  0.00  0.00    +0.009 A 
ATOM     32  C   UNL     1      29.005   6.037 -23.243  0.00  0.00    +0.009 A 
ATOM     33  C   UNL     1      29.788   5.281 -22.353  0.00  0.00    -0.018 A 
BRANCH  33  34
ATOM     34  C   UNL     1      30.946   5.868 -21.637  0.00  0.00    -0.015 A 
ATOM     35  C   UNL     1      32.116   6.240 -22.314  0.00  0.00    +0.028 A 
ATOM     36  C   UNL     1      30.932   6.074 -20.246  0.00  0.00    +0.028 A 
ATOM     37  C   UNL     1      33.183   6.766 -21.603  0.00  0.00    +0.111 A 
ATOM     38  C   UNL     1      32.040   6.613 -19.624  0.00  0.00    +0.111 A 
ATOM     39  N   UNL     1      33.169   6.957 -20.270  0.00  0.00    -0.263 NA
ENDBRANCH  33  34
ENDBRANCH  27  28
ENDBRANCH  25  27
ENDBRANCH   1  24
TORSDOF 5
ENDMDL
MODEL 3
REMARK VINA RESULT:   -11.406      3.840      6.075
REMARK INTER + INTRA:         -15.839
REMARK INTER:                 -14.937
REMARK INTRA:                  -0.902
REMARK UNBOUND:                -1.100
REMARK  Name = CTX-1020698
REMARK  6 active torsions:
REMARK  status: ('A' for Active; 'I' for Inactive)
REMARK    1  A    between atoms: C_2  and  C_4
REMARK    2  A    between atoms: N_3  and  C_5
REMARK    3  A    between atoms: C_5  and  C_8
REMARK    4  A    between atoms: C_19  and  C_22
REMARK    5  A    between atoms: C_21  and  C_24
REMARK    6  A    between atoms: C_28  and  C_33
REMARK                            x       y       z     vdW  Elec       q    Type
REMARK                         _______ _______ _______ _____ _____    ______ ____
ROOT
ATOM      1  C   UNL     1      26.378   3.436 -17.103  0.00  0.00    +0.126 A 
ATOM      2  N   UNL     1      25.327   3.662 -16.254  0.00  0.00    -0.245 NA
ATOM      3  C   UNL     1      26.374   2.470 -18.101  0.00  0.00    +0.033 A 
ATOM      4  C   UNL     1      24.212   2.882 -16.425  0.00  0.00    +0.063 A 
ATOM      5  C   UNL     1      25.248   1.678 -18.248  0.00  0.00    +0.008 A 
ATOM      6  C   UNL     1      24.152   1.870 -17.403  0.00  0.00    -0.023 A 
ATOM      7  C   UNL     1      23.010   3.110 -15.495  0.00  0.00    +0.163 C 
ATOM      8  C   UNL     1      22.916   1.037 -17.623  0.00  0.00    +0.056 C 
ATOM      9  N   UNL     1      21.785   2.448 -15.958  0.00  0.00    -0.289 N 
ATOM     10  C   UNL     1      21.945   1.089 -16.452  0.00  0.00    +0.113 C 
ATOM     11  C   UNL     1      20.525   3.021 -15.744  0.00  0.00    +0.283 C 
ATOM     12  O   UNL     1      20.330   3.801 -14.813  0.00  0.00    -0.267 OA
ENDROOT
BRANCH  11  13
ATOM     13  C   UNL     1      19.560   2.844 -16.842  0.00  0.00    +0.194 A 
ATOM     14  O   UNL     1      18.367   2.268 -16.455  0.00  0.00    -0.450 OA
ATOM     15  C   UNL     1      19.736   2.512 -18.188  0.00  0.00    +0.008 A 
ATOM     16  C   UNL     1      18.268   1.142 -17.205  0.00  0.00    +0.136 A 
ATOM     17  C   UNL     1      19.187   1.196 -18.247  0.00  0.00    +0.024 A 
ATOM     18  C   UNL     1      20.408   3.227 -19.297  0.00  0.00    +0.048 C 
ATOM     19  C   UNL     1      17.438   0.078 -16.913  0.00  0.00    +0.047 A 
ATOM     20  C   UNL     1      19.342   0.053 -19.047  0.00  0.00    +0.012 A 
ATOM     21  C   UNL     1      17.645  -1.065 -17.687  0.00  0.00    +0.004 A 
ATOM     22  C   UNL     1      18.595  -1.088 -18.718  0.00  0.00    +0.001 A 
ENDBRANCH  11  13
BRANCH   1  24
ATOM     23  O   UNL     1      27.571   5.377 -16.429  0.00  0.00    -0.269 OA
ATOM     24  C   UNL     1      27.619   4.280 -16.981  0.00  0.00    +0.263 C 
ATOM     25  N   UNL     1      28.779   3.761 -17.507  0.00  0.00    -0.306 N 
ATOM     26  H   UNL     1      28.752   2.886 -17.960  0.00  0.00    +0.149 HD
BRANCH  25  27
ATOM     27  C   UNL     1      30.037   4.466 -17.411  0.00  0.00    +0.140 C 
BRANCH  27  28
ATOM     28  C   UNL     1      30.454   5.065 -18.729  0.00  0.00    -0.030 A 
ATOM     29  C   UNL     1      31.117   6.295 -18.771  0.00  0.00    +0.006 A 
ATOM     30  C   UNL     1      30.201   4.403 -19.932  0.00  0.00    +0.006 A 
ATOM     31  C   UNL     1      31.545   6.836 -19.989  0.00  0.00    +0.009 A 
ATOM     32  C   UNL     1      30.643   4.942 -21.150  0.00  0.00    +0.009 A 
ATOM     33  C   UNL     1      31.330   6.167 -21.208  0.00  0.00    -0.018 A 
BRANCH  33  34
ATOM     34  C   UNL     1      31.816   6.732 -22.489  0.00  0.00    -0.015 A 
ATOM     35  C   UNL     1      33.161   7.084 -22.673  0.00  0.00    +0.028 A 
ATOM     36  C   UNL     1      30.956   6.950 -23.579  0.00  0.00    +0.028 A 
ATOM     37  C   UNL     1      33.571   7.629 -23.879  0.00  0.00    +0.111 A 
ATOM     38  C   UNL     1      31.455   7.490 -24.747  0.00  0.00    +0.111 A 
ATOM     39  N   UNL     1      32.742   7.841 -24.920  0.00  0.00    -0.263 NA
ENDBRANCH  33  34
ENDBRANCH  27  28
ENDBRANCH  25  27
ENDBRANCH   1  24
TORSDOF 5
ENDMDL
MODEL 4
REMARK VINA RESULT:   -11.203      3.856      6.631
REMARK INTER + INTRA:         -15.577
REMARK INTER:                 -14.549
REMARK INTRA:                  -1.028
REMARK UNBOUND:                -1.100
REMARK  Name = CTX-1020698
REMARK  6 active torsions:
REMARK  status: ('A' for Active; 'I' for Inactive)
REMARK    1  A    between atoms: C_2  and  C_4
REMARK    2  A    between atoms: N_3  and  C_5
REMARK    3  A    between atoms: C_5  and  C_8
REMARK    4  A    between atoms: C_19  and  C_22
REMARK    5  A    between atoms: C_21  and  C_24
REMARK    6  A    between atoms: C_28  and  C_33
REMARK                            x       y       z     vdW  Elec       q    Type
REMARK                         _______ _______ _______ _____ _____    ______ ____
ROOT
ATOM      1  C   UNL     1      25.828   3.423 -16.258  0.00  0.00    +0.126 A 
ATOM      2  N   UNL     1      25.253   3.180 -17.477  0.00  0.00    -0.245 NA
ATOM      3  C   UNL     1      25.273   3.028 -15.047  0.00  0.00    +0.033 A 
ATOM      4  C   UNL     1      24.063   2.497 -17.478  0.00  0.00    +0.063 A 
ATOM      5  C   UNL     1      24.063   2.356 -15.064  0.00  0.00    +0.008 A 
ATOM      6  C   UNL     1      23.437   2.089 -16.284  0.00  0.00    -0.023 A 
ATOM      7  C   UNL     1      23.390   2.202 -18.827  0.00  0.00    +0.163 C 
ATOM      8  C   UNL     1      22.152   1.302 -16.279  0.00  0.00    +0.056 C 
ATOM      9  N   UNL     1      22.307   1.216 -18.731  0.00  0.00    -0.289 N 
ATOM     10  C   UNL     1      21.403   1.375 -17.603  0.00  0.00    +0.113 C 
ATOM     11  C   UNL     1      22.051   0.316 -19.773  0.00  0.00    +0.283 C 
ATOM     12  O   UNL     1      22.363   0.578 -20.933  0.00  0.00    -0.267 OA
ENDROOT
BRANCH  11  13
ATOM     13  C   UNL     1      21.647  -1.036 -19.348  0.00  0.00    +0.194 A 
ATOM     14  O   UNL     1      22.651  -1.977 -19.442  0.00  0.00    -0.450 OA
ATOM     15  C   UNL     1      20.444  -1.731 -19.487  0.00  0.00    +0.008 A 
ATOM     16  C   UNL     1      22.160  -2.923 -20.282  0.00  0.00    +0.136 A 
ATOM     17  C   UNL     1      20.789  -2.744 -20.431  0.00  0.00    +0.024 A 
ATOM     18  C   UNL     1      19.094  -1.481 -18.932  0.00  0.00    +0.048 C 
ATOM     19  C   UNL     1      22.931  -3.858 -20.945  0.00  0.00    +0.047 A 
ATOM     20  C   UNL     1      20.123  -3.534 -21.382  0.00  0.00    +0.012 A 
ATOM     21  C   UNL     1      22.259  -4.594 -21.921  0.00  0.00    +0.004 A 
ATOM     22  C   UNL     1      20.888  -4.421 -22.154  0.00  0.00    +0.001 A 
ENDBRANCH  11  13
BRANCH   1  24
ATOM     23  O   UNL     1      27.184   5.352 -15.965  0.00  0.00    -0.269 OA
ATOM     24  C   UNL     1      27.147   4.146 -16.196  0.00  0.00    +0.263 C 
ATOM     25  N   UNL     1      28.279   3.393 -16.405  0.00  0.00    -0.306 N 
ATOM     26  H   UNL     1      28.187   2.434 -16.610  0.00  0.00    +0.149 HD
BRANCH  25  27
ATOM     27  C   UNL     1      29.601   3.974 -16.329  0.00  0.00    +0.140 C 
BRANCH  27  28
ATOM     28  C   UNL     1      30.029   4.584 -17.638  0.00  0.00    -0.030 A 
ATOM     29  C   UNL     1      30.669   5.827 -17.665  0.00  0.00    +0.006 A 
ATOM     30  C   UNL     1      29.807   3.921 -18.847  0.00  0.00    +0.006 A 
ATOM     31  C   UNL     1      31.107   6.379 -18.875  0.00  0.00    +0.009 A 
ATOM     32  C   UNL     1      30.259   4.472 -20.056  0.00  0.00    +0.009 A 
ATOM     33  C   UNL     1      30.925   5.710 -20.099  0.00  0.00    -0.018 A 
BRANCH  33  34
ATOM     34  C   UNL     1      31.421   6.287 -21.370  0.00  0.00    -0.015 A 
ATOM     35  C   UNL     1      30.575   6.474 -22.472  0.00  0.00    +0.028 A 
ATOM     36  C   UNL     1      32.764   6.669 -21.538  0.00  0.00    +0.028 A 
ATOM     37  C   UNL     1      31.084   6.999 -23.649  0.00  0.00    +0.111 A 
ATOM     38  C   UNL     1      33.181   7.192 -22.746  0.00  0.00    +0.111 A 
ATOM     39  N   UNL     1      32.372   7.359 -23.808  0.00  0.00    -0.263 NA
ENDBRANCH  33  34
ENDBRANCH  27  28
ENDBRANCH  25  27
ENDBRANCH   1  24
TORSDOF 5
ENDMDL
MODEL 5
REMARK VINA RESULT:   -10.705      3.614      6.558
REMARK INTER + INTRA:         -14.933
REMARK INTER:                 -13.969
REMARK INTRA:                  -0.964
REMARK UNBOUND:                -1.100
REMARK  Name = CTX-1020698
REMARK  6 active torsions:
REMARK  status: ('A' for Active; 'I' for Inactive)
REMARK    1  A    between atoms: C_2  and  C_4
REMARK    2  A    between atoms: N_3  and  C_5
REMARK    3  A    between atoms: C_5  and  C_8
REMARK    4  A    between atoms: C_19  and  C_22
REMARK    5  A    between atoms: C_21  and  C_24
REMARK    6  A    between atoms: C_28  and  C_33
REMARK                            x       y       z     vdW  Elec       q    Type
REMARK                         _______ _______ _______ _____ _____    ______ ____
ROOT
ATOM      1  C   UNL     1      24.448   1.591 -20.471  0.00  0.00    +0.126 A 
ATOM      2  N   UNL     1      23.101   1.726 -20.682  0.00  0.00    -0.245 NA
ATOM      3  C   UNL     1      25.021   1.390 -19.222  0.00  0.00    +0.033 A 
ATOM      4  C   UNL     1      22.289   1.646 -19.579  0.00  0.00    +0.063 A 
ATOM      5  C   UNL     1      24.189   1.329 -18.117  0.00  0.00    +0.008 A 
ATOM      6  C   UNL     1      22.808   1.465 -18.282  0.00  0.00    -0.023 A 
ATOM      7  C   UNL     1      20.772   1.788 -19.776  0.00  0.00    +0.163 C 
ATOM      8  C   UNL     1      21.920   1.335 -17.071  0.00  0.00    +0.056 C 
ATOM      9  N   UNL     1      19.994   1.383 -18.598  0.00  0.00    -0.289 N 
ATOM     10  C   UNL     1      20.503   1.838 -17.314  0.00  0.00    +0.113 C 
ATOM     11  C   UNL     1      18.739   0.776 -18.732  0.00  0.00    +0.283 C 
ATOM     12  O   UNL     1      18.044   0.962 -19.729  0.00  0.00    -0.267 OA
ENDROOT
BRANCH  11  13
ATOM     13  C   UNL     1      18.448  -0.284 -17.751  0.00  0.00    +0.194 A 
ATOM     14  O   UNL     1      17.481   0.054 -16.828  0.00  0.00    -0.450 OA
ATOM     15  C   UNL     1      19.273  -1.224 -17.128  0.00  0.00    +0.008 A 
ATOM     16  C   UNL     1      18.098  -0.059 -15.624  0.00  0.00    +0.136 A 
ATOM     17  C   UNL     1      19.289  -0.761 -15.778  0.00  0.00    +0.024 A 
ATOM     18  C   UNL     1      20.056  -2.357 -17.671  0.00  0.00    +0.048 C 
ATOM     19  C   UNL     1      17.644   0.516 -14.454  0.00  0.00    +0.047 A 
ATOM     20  C   UNL     1      20.146  -0.852 -14.671  0.00  0.00    +0.012 A 
ATOM     21  C   UNL     1      18.534   0.459 -13.382  0.00  0.00    +0.004 A 
ATOM     22  C   UNL     1      19.772  -0.190 -13.491  0.00  0.00    +0.001 A 
ENDBRANCH  11  13
BRANCH   1  24
ATOM     23  O   UNL     1      26.031   0.649 -21.971  0.00  0.00    -0.269 OA
ATOM     24  C   UNL     1      25.386   1.644 -21.647  0.00  0.00    +0.263 C 
ATOM     25  N   UNL     1      25.473   2.840 -22.321  0.00  0.00    -0.306 N 
ATOM     26  H   UNL     1      24.950   3.611 -22.001  0.00  0.00    +0.149 HD
BRANCH  25  27
ATOM     27  C   UNL     1      26.312   2.993 -23.488  0.00  0.00    +0.140 C 
BRANCH  27  28
ATOM     28  C   UNL     1      27.541   3.814 -23.201  0.00  0.00    -0.030 A 
ATOM     29  C   UNL     1      27.697   5.082 -23.770  0.00  0.00    +0.006 A 
ATOM     30  C   UNL     1      28.544   3.336 -22.354  0.00  0.00    +0.006 A 
ATOM     31  C   UNL     1      28.818   5.867 -23.472  0.00  0.00    +0.009 A 
ATOM     32  C   UNL     1      29.659   4.131 -22.048  0.00  0.00    +0.009 A 
ATOM     33  C   UNL     1      29.820   5.416 -22.594  0.00  0.00    -0.018 A 
BRANCH  33  34
ATOM     34  C   UNL     1      30.986   6.268 -22.260  0.00  0.00    -0.015 A 
ATOM     35  C   UNL     1      32.044   5.789 -21.475  0.00  0.00    +0.028 A 
ATOM     36  C   UNL     1      31.086   7.598 -22.705  0.00  0.00    +0.028 A 
ATOM     37  C   UNL     1      33.106   6.625 -21.168  0.00  0.00    +0.111 A 
ATOM     38  C   UNL     1      32.187   8.355 -22.356  0.00  0.00    +0.111 A 
ATOM     39  N   UNL     1      33.196   7.900 -21.592  0.00  0.00    -0.263 NA
ENDBRANCH  33  34
ENDBRANCH  27  28
ENDBRANCH  25  27
ENDBRANCH   1  24
TORSDOF 5
ENDMDL
