MODEL 1
REMARK VINA RESULT:   -12.246      0.000      0.000
REMARK INTER + INTRA:         -15.854
REMARK INTER:                 -15.109
REMARK INTRA:                  -0.745
REMARK UNBOUND:                -0.745
REMARK  Name = CTX-1020695
REMARK  5 active torsions:
REMARK  status: ('A' for Active; 'I' for Inactive)
REMARK    1  A    between atoms: C_2  and  C_4
REMARK    2  A    between atoms: N_3  and  C_5
REMARK    3  A    between atoms: C_5  and  C_8
REMARK    4  A    between atoms: C_22  and  C_26
REMARK    5  A    between atoms: C_29  and  C_32
REMARK                            x       y       z     vdW  Elec       q    Type
REMARK                         _______ _______ _______ _____ _____    ______ ____
ROOT
ATOM      1  C   UNL     1      24.901   1.333 -23.225  0.00  0.00    +0.126 A 
ATOM      2  N   UNL     1      24.883   1.486 -21.863  0.00  0.00    -0.245 NA
ATOM      3  C   UNL     1      24.164   0.373 -23.907  0.00  0.00    +0.033 A 
ATOM      4  C   UNL     1      24.058   0.636 -21.158  0.00  0.00    +0.063 A 
ATOM      5  C   UNL     1      23.358  -0.485 -23.177  0.00  0.00    +0.008 A 
ATOM      6  C   UNL     1      23.302  -0.365 -21.789  0.00  0.00    -0.023 A 
ATOM      7  C   UNL     1      23.997   0.784 -19.626  0.00  0.00    +0.163 C 
ATOM      8  C   UNL     1      22.355  -1.259 -21.023  0.00  0.00    +0.056 C 
ATOM      9  N   UNL     1      22.853   0.083 -19.022  0.00  0.00    -0.289 N 
ATOM     10  C   UNL     1      22.611  -1.262 -19.521  0.00  0.00    +0.113 C 
ATOM     11  C   UNL     1      22.161   0.631 -17.927  0.00  0.00    +0.283 C 
ATOM     12  O   UNL     1      22.707   1.444 -17.179  0.00  0.00    -0.267 OA
ENDROOT
BRANCH  11  13
ATOM     13  C   UNL     1      20.706   0.369 -17.883  0.00  0.00    +0.194 A 
ATOM     14  O   UNL     1      19.948   1.525 -17.804  0.00  0.00    -0.450 OA
ATOM     15  C   UNL     1      19.970  -0.594 -17.179  0.00  0.00    +0.008 A 
ATOM     16  C   UNL     1      19.358   1.457 -16.587  0.00  0.00    +0.136 A 
ATOM     17  C   UNL     1      19.435   0.165 -16.095  0.00  0.00    +0.024 A 
ATOM     18  C   UNL     1      19.719  -2.031 -17.426  0.00  0.00    +0.048 C 
ATOM     19  C   UNL     1      18.809   2.532 -15.929  0.00  0.00    +0.047 A 
ATOM     20  C   UNL     1      18.953  -0.091 -14.804  0.00  0.00    +0.012 A 
ATOM     21  C   UNL     1      18.390   2.282 -14.611  0.00  0.00    +0.004 A 
ATOM     22  C   UNL     1      18.476   0.994 -14.057  0.00  0.00    +0.001 A 
ENDBRANCH  11  13
BRANCH   1  24
ATOM     23  O   UNL     1      25.785   2.110 -25.283  0.00  0.00    -0.269 OA
ATOM     24  C   UNL     1      25.735   2.262 -24.065  0.00  0.00    +0.263 C 
ATOM     25  N   UNL     1      26.415   3.265 -23.412  0.00  0.00    -0.306 N 
ATOM     26  H   UNL     1      26.371   3.319 -22.431  0.00  0.00    +0.149 HD
BRANCH  25  27
ATOM     27  C   UNL     1      27.193   4.240 -24.143  0.00  0.00    +0.140 C 
BRANCH  27  28
ATOM     28  C   UNL     1      28.457   4.626 -23.421  0.00  0.00    -0.029 A 
ATOM     29  C   UNL     1      29.138   5.810 -23.754  0.00  0.00    +0.028 A 
ATOM     30  C   UNL     1      28.974   3.810 -22.409  0.00  0.00    +0.005 A 
ATOM     31  C   UNL     1      30.294   6.206 -23.067  0.00  0.00    +0.031 A 
ATOM     32  C   UNL     1      30.146   4.171 -21.745  0.00  0.00    +0.006 A 
ATOM     33  N   UNL     1      30.979   7.363 -23.476  0.00  0.00    -0.344 N 
ATOM     34  C   UNL     1      30.821   5.354 -22.080  0.00  0.00    -0.026 A 
ATOM     35  C   UNL     1      31.926   7.909 -22.515  0.00  0.00    +0.102 C 
ATOM     36  C   UNL     1      32.076   5.726 -21.329  0.00  0.00    +0.038 C 
ATOM     37  C   UNL     1      32.871   6.814 -22.044  0.00  0.00    +0.023 C 
ATOM     38  H   UNL     1      30.827   7.779 -24.357  0.00  0.00    +0.146 HD
ENDBRANCH  27  28
ENDBRANCH  25  27
ENDBRANCH   1  24
TORSDOF 4
ENDMDL
MODEL 2
REMARK VINA RESULT:   -11.789      3.806      4.951
REMARK INTER + INTRA:         -15.291
REMARK INTER:                 -15.360
REMARK INTRA:                   0.069
REMARK UNBOUND:                -0.745
REMARK  Name = CTX-1020695
REMARK  5 active torsions:
REMARK  status: ('A' for Active; 'I' for Inactive)
REMARK    1  A    between atoms: C_2  and  C_4
REMARK    2  A    between atoms: N_3  and  C_5
REMARK    3  A    between atoms: C_5  and  C_8
REMARK    4  A    between atoms: C_22  and  C_26
REMARK    5  A    between atoms: C_29  and  C_32
REMARK                            x       y       z     vdW  Elec       q    Type
REMARK                         _______ _______ _______ _____ _____    ______ ____
ROOT
ATOM      1  C   UNL     1      25.044   0.920 -21.938  0.00  0.00    +0.126 A 
ATOM      2  N   UNL     1      25.075   1.292 -20.619  0.00  0.00    -0.245 NA
ATOM      3  C   UNL     1      23.945   0.332 -22.552  0.00  0.00    +0.033 A 
ATOM      4  C   UNL     1      23.923   1.077 -19.891  0.00  0.00    +0.063 A 
ATOM      5  C   UNL     1      22.807   0.105 -21.797  0.00  0.00    +0.008 A 
ATOM      6  C   UNL     1      22.787   0.472 -20.452  0.00  0.00    -0.023 A 
ATOM      7  C   UNL     1      23.910   1.494 -18.408  0.00  0.00    +0.163 C 
ATOM      8  C   UNL     1      21.508   0.288 -19.671  0.00  0.00    +0.056 C 
ATOM      9  N   UNL     1      22.558   1.544 -17.833  0.00  0.00    -0.289 N 
ATOM     10  C   UNL     1      21.697   0.417 -18.164  0.00  0.00    +0.113 C 
ATOM     11  C   UNL     1      22.200   2.533 -16.900  0.00  0.00    +0.283 C 
ATOM     12  O   UNL     1      23.058   3.098 -16.220  0.00  0.00    -0.267 OA
ENDROOT
BRANCH  11  13
ATOM     13  C   UNL     1      20.803   3.015 -16.969  0.00  0.00    +0.194 A 
ATOM     14  O   UNL     1      20.309   3.427 -15.743  0.00  0.00    -0.450 OA
ATOM     15  C   UNL     1      19.691   2.502 -17.651  0.00  0.00    +0.008 A 
ATOM     16  C   UNL     1      19.324   2.541 -15.462  0.00  0.00    +0.136 A 
ATOM     17  C   UNL     1      18.967   1.851 -16.607  0.00  0.00    +0.024 A 
ATOM     18  C   UNL     1      19.267   2.586 -19.067  0.00  0.00    +0.048 C 
ATOM     19  C   UNL     1      18.801   2.335 -14.208  0.00  0.00    +0.047 A 
ATOM     20  C   UNL     1      18.018   0.825 -16.504  0.00  0.00    +0.012 A 
ATOM     21  C   UNL     1      17.902   1.261 -14.100  0.00  0.00    +0.004 A 
ATOM     22  C   UNL     1      17.531   0.512 -15.229  0.00  0.00    +0.001 A 
ENDBRANCH  11  13
BRANCH   1  24
ATOM     23  O   UNL     1      27.261   1.666 -22.323  0.00  0.00    -0.269 OA
ATOM     24  C   UNL     1      26.245   1.175 -22.808  0.00  0.00    +0.263 C 
ATOM     25  N   UNL     1      26.146   0.833 -24.137  0.00  0.00    -0.306 N 
ATOM     26  H   UNL     1      25.296   0.479 -24.483  0.00  0.00    +0.149 HD
BRANCH  25  27
ATOM     27  C   UNL     1      27.269   0.986 -25.035  0.00  0.00    +0.140 C 
BRANCH  27  28
ATOM     28  C   UNL     1      26.847   1.406 -26.419  0.00  0.00    -0.029 A 
ATOM     29  C   UNL     1      26.161   2.616 -26.621  0.00  0.00    +0.028 A 
ATOM     30  C   UNL     1      27.127   0.595 -27.524  0.00  0.00    +0.005 A 
ATOM     31  C   UNL     1      25.795   3.043 -27.906  0.00  0.00    +0.031 A 
ATOM     32  C   UNL     1      26.733   0.987 -28.802  0.00  0.00    +0.006 A 
ATOM     33  N   UNL     1      25.054   4.228 -28.055  0.00  0.00    -0.344 N 
ATOM     34  C   UNL     1      26.050   2.196 -28.999  0.00  0.00    -0.026 A 
ATOM     35  C   UNL     1      25.032   4.793 -29.396  0.00  0.00    +0.102 C 
ATOM     36  C   UNL     1      25.654   2.601 -30.397  0.00  0.00    +0.038 C 
ATOM     37  C   UNL     1      24.623   3.725 -30.398  0.00  0.00    +0.023 C 
ATOM     38  H   UNL     1      24.581   4.650 -27.300  0.00  0.00    +0.146 HD
ENDBRANCH  27  28
ENDBRANCH  25  27
ENDBRANCH   1  24
TORSDOF 4
ENDMDL
MODEL 3
REMARK VINA RESULT:   -11.724      3.086      5.322
REMARK INTER + INTRA:         -15.210
REMARK INTER:                 -14.434
REMARK INTRA:                  -0.777
REMARK UNBOUND:                -0.745
REMARK  Name = CTX-1020695
REMARK  5 active torsions:
REMARK  status: ('A' for Active; 'I' for Inactive)
REMARK    1  A    between atoms: C_2  and  C_4
REMARK    2  A    between atoms: N_3  and  C_5
REMARK    3  A    between atoms: C_5  and  C_8
REMARK    4  A    between atoms: C_22  and  C_26
REMARK    5  A    between atoms: C_29  and  C_32
REMARK                            x       y       z     vdW  Elec       q    Type
REMARK                         _______ _______ _______ _____ _____    ______ ____
ROOT
ATOM      1  C   UNL     1      28.744   4.915 -22.943  0.00  0.00    +0.126 A 
ATOM      2  N   UNL     1      28.502   3.823 -22.150  0.00  0.00    -0.245 NA
ATOM      3  C   UNL     1      28.071   5.177 -24.129  0.00  0.00    +0.033 A 
ATOM      4  C   UNL     1      27.509   2.964 -22.572  0.00  0.00    +0.063 A 
ATOM      5  C   UNL     1      27.093   4.290 -24.545  0.00  0.00    +0.008 A 
ATOM      6  C   UNL     1      26.805   3.167 -23.770  0.00  0.00    -0.023 A 
ATOM      7  C   UNL     1      27.194   1.732 -21.704  0.00  0.00    +0.163 C 
ATOM      8  C   UNL     1      25.680   2.258 -24.204  0.00  0.00    +0.056 C 
ATOM      9  N   UNL     1      25.917   1.090 -22.050  0.00  0.00    -0.289 N 
ATOM     10  C   UNL     1      25.671   0.920 -23.475  0.00  0.00    +0.113 C 
ATOM     11  C   UNL     1      25.086   0.541 -21.057  0.00  0.00    +0.283 C 
ATOM     12  O   UNL     1      25.550   0.188 -19.972  0.00  0.00    -0.267 OA
ENDROOT
BRANCH  11  13
ATOM     13  C   UNL     1      23.630   0.649 -21.298  0.00  0.00    +0.194 A 
ATOM     14  O   UNL     1      23.098   1.855 -20.877  0.00  0.00    -0.450 OA
ATOM     15  C   UNL     1      22.600  -0.284 -21.113  0.00  0.00    +0.008 A 
ATOM     16  C   UNL     1      22.266   1.520 -19.862  0.00  0.00    +0.136 A 
ATOM     17  C   UNL     1      22.002   0.162 -19.896  0.00  0.00    +0.024 A 
ATOM     18  C   UNL     1      22.146  -1.438 -21.921  0.00  0.00    +0.048 C 
ATOM     19  C   UNL     1      21.801   2.402 -18.917  0.00  0.00    +0.047 A 
ATOM     20  C   UNL     1      21.225  -0.396 -18.872  0.00  0.00    +0.012 A 
ATOM     21  C   UNL     1      21.080   1.825 -17.858  0.00  0.00    +0.004 A 
ATOM     22  C   UNL     1      20.811   0.447 -17.832  0.00  0.00    +0.001 A 
ENDBRANCH  11  13
BRANCH   1  24
ATOM     23  O   UNL     1      29.989   6.118 -21.322  0.00  0.00    -0.269 OA
ATOM     24  C   UNL     1      29.775   5.925 -22.517  0.00  0.00    +0.263 C 
ATOM     25  N   UNL     1      30.449   6.597 -23.510  0.00  0.00    -0.306 N 
ATOM     26  H   UNL     1      30.213   6.433 -24.451  0.00  0.00    +0.149 HD
BRANCH  25  27
ATOM     27  C   UNL     1      31.499   7.542 -23.196  0.00  0.00    +0.140 C 
BRANCH  27  28
ATOM     28  C   UNL     1      32.446   7.753 -24.348  0.00  0.00    -0.029 A 
ATOM     29  C   UNL     1      33.778   8.138 -24.117  0.00  0.00    +0.028 A 
ATOM     30  C   UNL     1      32.013   7.573 -25.666  0.00  0.00    +0.005 A 
ATOM     31  C   UNL     1      34.686   8.301 -25.174  0.00  0.00    +0.031 A 
ATOM     32  C   UNL     1      32.894   7.771 -26.729  0.00  0.00    +0.006 A 
ATOM     33  N   UNL     1      35.990   8.749 -24.901  0.00  0.00    -0.344 N 
ATOM     34  C   UNL     1      34.222   8.154 -26.493  0.00  0.00    -0.026 A 
ATOM     35  C   UNL     1      36.962   8.543 -25.965  0.00  0.00    +0.102 C 
ATOM     36  C   UNL     1      35.155   8.342 -27.664  0.00  0.00    +0.038 C 
ATOM     37  C   UNL     1      36.421   9.098 -27.273  0.00  0.00    +0.023 C 
ATOM     38  H   UNL     1      36.230   9.175 -24.045  0.00  0.00    +0.146 HD
ENDBRANCH  27  28
ENDBRANCH  25  27
ENDBRANCH   1  24
TORSDOF 4
ENDMDL
MODEL 4
REMARK VINA RESULT:   -11.160      3.583     11.228
REMARK INTER + INTRA:         -14.514
REMARK INTER:                 -13.679
REMARK INTRA:                  -0.836
REMARK UNBOUND:                -0.745
REMARK  Name = CTX-1020695
REMARK  5 active torsions:
REMARK  status: ('A' for Active; 'I' for Inactive)
REMARK    1  A    between atoms: C_2  and  C_4
REMARK    2  A    between atoms: N_3  and  C_5
REMARK    3  A    between atoms: C_5  and  C_8
REMARK    4  A    between atoms: C_22  and  C_26
REMARK    5  A    between atoms: C_29  and  C_32
REMARK                            x       y       z     vdW  Elec       q    Type
REMARK                         _______ _______ _______ _____ _____    ______ ____
ROOT
ATOM      1  C   UNL     1      23.525   2.085 -17.703  0.00  0.00    +0.126 A 
ATOM      2  N   UNL     1      24.723   1.897 -18.342  0.00  0.00    -0.245 NA
ATOM      3  C   UNL     1      23.378   2.814 -16.530  0.00  0.00    +0.033 A 
ATOM      4  C   UNL     1      25.825   2.499 -17.773  0.00  0.00    +0.063 A 
ATOM      5  C   UNL     1      24.501   3.392 -15.963  0.00  0.00    +0.008 A 
ATOM      6  C   UNL     1      25.742   3.234 -16.580  0.00  0.00    -0.023 A 
ATOM      7  C   UNL     1      27.189   2.325 -18.467  0.00  0.00    +0.163 C 
ATOM      8  C   UNL     1      26.939   3.940 -15.988  0.00  0.00    +0.056 C 
ATOM      9  N   UNL     1      28.208   3.272 -17.988  0.00  0.00    -0.289 N 
ATOM     10  C   UNL     1      28.268   3.444 -16.544  0.00  0.00    +0.113 C 
ATOM     11  C   UNL     1      29.152   3.832 -18.867  0.00  0.00    +0.283 C 
ATOM     12  O   UNL     1      29.447   3.264 -19.920  0.00  0.00    -0.267 OA
ENDROOT
BRANCH  11  13
ATOM     13  C   UNL     1      29.561   5.224 -18.577  0.00  0.00    +0.194 A 
ATOM     14  O   UNL     1      29.237   6.108 -19.592  0.00  0.00    -0.450 OA
ATOM     15  C   UNL     1      30.742   5.733 -18.019  0.00  0.00    +0.008 A 
ATOM     16  C   UNL     1      30.434   6.524 -20.071  0.00  0.00    +0.136 A 
ATOM     17  C   UNL     1      31.437   6.218 -19.168  0.00  0.00    +0.024 A 
ATOM     18  C   UNL     1      31.223   5.826 -16.622  0.00  0.00    +0.048 C 
ATOM     19  C   UNL     1      30.615   7.117 -21.297  0.00  0.00    +0.047 A 
ATOM     20  C   UNL     1      32.765   6.492 -19.522  0.00  0.00    +0.012 A 
ATOM     21  C   UNL     1      31.953   7.328 -21.673  0.00  0.00    +0.004 A 
ATOM     22  C   UNL     1      33.007   7.006 -20.802  0.00  0.00    +0.001 A 
ENDBRANCH  11  13
BRANCH   1  24
ATOM     23  O   UNL     1      21.889   1.869 -19.406  0.00  0.00    -0.269 OA
ATOM     24  C   UNL     1      22.270   1.504 -18.296  0.00  0.00    +0.263 C 
ATOM     25  N   UNL     1      21.595   0.564 -17.551  0.00  0.00    -0.306 N 
ATOM     26  H   UNL     1      21.921   0.335 -16.652  0.00  0.00    +0.149 HD
BRANCH  25  27
ATOM     27  C   UNL     1      20.413  -0.092 -18.066  0.00  0.00    +0.140 C 
BRANCH  27  28
ATOM     28  C   UNL     1      20.715  -1.448 -18.647  0.00  0.00    -0.029 A 
ATOM     29  C   UNL     1      21.248  -1.569 -19.942  0.00  0.00    +0.028 A 
ATOM     30  C   UNL     1      20.467  -2.609 -17.907  0.00  0.00    +0.005 A 
ATOM     31  C   UNL     1      21.572  -2.820 -20.485  0.00  0.00    +0.031 A 
ATOM     32  C   UNL     1      20.747  -3.862 -18.451  0.00  0.00    +0.006 A 
ATOM     33  N   UNL     1      22.042  -2.898 -21.808  0.00  0.00    -0.344 N 
ATOM     34  C   UNL     1      21.279  -3.977 -19.743  0.00  0.00    -0.026 A 
ATOM     35  C   UNL     1      22.697  -4.146 -22.172  0.00  0.00    +0.102 C 
ATOM     36  C   UNL     1      21.589  -5.347 -20.294  0.00  0.00    +0.038 C 
ATOM     37  C   UNL     1      21.805  -5.322 -21.804  0.00  0.00    +0.023 C 
ATOM     38  H   UNL     1      21.936  -2.155 -22.447  0.00  0.00    +0.146 HD
ENDBRANCH  27  28
ENDBRANCH  25  27
ENDBRANCH   1  24
TORSDOF 4
ENDMDL
MODEL 5
REMARK VINA RESULT:   -11.106      3.483      6.047
REMARK INTER + INTRA:         -14.448
REMARK INTER:                 -13.714
REMARK INTRA:                  -0.734
REMARK UNBOUND:                -0.745
REMARK  Name = CTX-1020695
REMARK  5 active torsions:
REMARK  status: ('A' for Active; 'I' for Inactive)
REMARK    1  A    between atoms: C_2  and  C_4
REMARK    2  A    between atoms: N_3  and  C_5
REMARK    3  A    between atoms: C_5  and  C_8
REMARK    4  A    between atoms: C_22  and  C_26
REMARK    5  A    between atoms: C_29  and  C_32
REMARK                            x       y       z     vdW  Elec       q    Type
REMARK                         _______ _______ _______ _____ _____    ______ ____
ROOT
ATOM      1  C   UNL     1      25.447   3.201 -16.186  0.00  0.00    +0.126 A 
ATOM      2  N   UNL     1      24.940   2.929 -17.431  0.00  0.00    -0.245 NA
ATOM      3  C   UNL     1      24.799   2.883 -15.000  0.00  0.00    +0.033 A 
ATOM      4  C   UNL     1      23.724   2.280 -17.473  0.00  0.00    +0.063 A 
ATOM      5  C   UNL     1      23.569   2.251 -15.065  0.00  0.00    +0.008 A 
ATOM      6  C   UNL     1      23.015   1.947 -16.308  0.00  0.00    -0.023 A 
ATOM      7  C   UNL     1      23.126   1.943 -18.851  0.00  0.00    +0.163 C 
ATOM      8  C   UNL     1      21.711   1.187 -16.353  0.00  0.00    +0.056 C 
ATOM      9  N   UNL     1      22.029   0.966 -18.783  0.00  0.00    -0.289 N 
ATOM     10  C   UNL     1      21.054   1.196 -17.727  0.00  0.00    +0.113 C 
ATOM     11  C   UNL     1      21.865  -0.015 -19.778  0.00  0.00    +0.283 C 
ATOM     12  O   UNL     1      22.319   0.154 -20.910  0.00  0.00    -0.267 OA
ENDROOT
BRANCH  11  13
ATOM     13  C   UNL     1      21.352  -1.324 -19.319  0.00  0.00    +0.194 A 
ATOM     14  O   UNL     1      22.332  -2.299 -19.255  0.00  0.00    -0.450 OA
ATOM     15  C   UNL     1      20.178  -2.015 -19.651  0.00  0.00    +0.008 A 
ATOM     16  C   UNL     1      21.973  -3.200 -20.199  0.00  0.00    +0.136 A 
ATOM     17  C   UNL     1      20.654  -3.001 -20.567  0.00  0.00    +0.024 A 
ATOM     18  C   UNL     1      18.775  -1.866 -19.201  0.00  0.00    +0.048 C 
ATOM     19  C   UNL     1      22.820  -4.138 -20.740  0.00  0.00    +0.047 A 
ATOM     20  C   UNL     1      20.119  -3.782 -21.600  0.00  0.00    +0.012 A 
ATOM     21  C   UNL     1      22.299  -4.871 -21.819  0.00  0.00    +0.004 A 
ATOM     22  C   UNL     1      20.974  -4.682 -22.248  0.00  0.00    +0.001 A 
ENDBRANCH  11  13
BRANCH   1  24
ATOM     23  O   UNL     1      26.875   5.077 -15.936  0.00  0.00    -0.269 OA
ATOM     24  C   UNL     1      26.795   3.858 -16.062  0.00  0.00    +0.263 C 
ATOM     25  N   UNL     1      27.901   3.040 -16.091  0.00  0.00    -0.306 N 
ATOM     26  H   UNL     1      27.784   2.074 -16.232  0.00  0.00    +0.149 HD
BRANCH  25  27
ATOM     27  C   UNL     1      29.233   3.576 -15.918  0.00  0.00    +0.140 C 
BRANCH  27  28
ATOM     28  C   UNL     1      29.719   4.315 -17.137  0.00  0.00    -0.029 A 
ATOM     29  C   UNL     1      29.785   3.671 -18.385  0.00  0.00    +0.028 A 
ATOM     30  C   UNL     1      30.114   5.654 -17.045  0.00  0.00    +0.005 A 
ATOM     31  C   UNL     1      30.196   4.354 -19.539  0.00  0.00    +0.031 A 
ATOM     32  C   UNL     1      30.564   6.333 -18.176  0.00  0.00    +0.006 A 
ATOM     33  N   UNL     1      30.309   3.653 -20.752  0.00  0.00    -0.344 N 
ATOM     34  C   UNL     1      30.627   5.687 -19.419  0.00  0.00    -0.026 A 
ATOM     35  C   UNL     1      30.375   4.477 -21.951  0.00  0.00    +0.102 C 
ATOM     36  C   UNL     1      31.100   6.456 -20.628  0.00  0.00    +0.038 C 
ATOM     37  C   UNL     1      31.455   5.535 -21.791  0.00  0.00    +0.023 C 
ATOM     38  H   UNL     1      30.341   2.669 -20.788  0.00  0.00    +0.146 HD
ENDBRANCH  27  28
ENDBRANCH  25  27
ENDBRANCH   1  24
TORSDOF 4
ENDMDL
