MODEL 1
REMARK VINA RESULT:   -11.995      0.000      0.000
REMARK INTER + INTRA:         -16.682
REMARK INTER:                 -15.502
REMARK INTRA:                  -1.180
REMARK UNBOUND:                -1.180
REMARK  Name = CTX-1020734
REMARK  5 active torsions:
REMARK  status: ('A' for Active; 'I' for Inactive)
REMARK    1  A    between atoms: C_3  and  C_6
REMARK    2  A    between atoms: C_21  and  C_22
REMARK    3  A    between atoms: N_24  and  C_25
REMARK    4  A    between atoms: C_25  and  C_26
REMARK    5  A    between atoms: C_31  and  N_32
REMARK                            x       y       z     vdW  Elec       q    Type
REMARK                         _______ _______ _______ _____ _____    ______ ____
ROOT
ATOM      1  C   UNL     1      25.120   1.120 -24.582  0.00  0.00    +0.255 C 
ATOM      2  O   UNL     1      24.772  -0.052 -24.529  0.00  0.00    -0.269 OA
ATOM      3  N   UNL     1      25.336   1.824 -23.291  0.00  0.00    -0.292 N 
ATOM      4  C   UNL     1      24.447   1.722 -21.839  0.00  0.00    +0.144 C 
ATOM      5  C   UNL     1      26.772   1.843 -23.200  0.00  0.00    +0.113 C 
ATOM      6  C   UNL     1      25.301   1.739 -20.434  0.00  0.00    -0.019 A 
ATOM      7  C   UNL     1      27.357   1.516 -21.863  0.00  0.00    +0.062 C 
ATOM      8  C   UNL     1      26.646   1.819 -20.607  0.00  0.00    -0.003 A 
ATOM      9  C   UNL     1      25.227   1.555 -18.900  0.00  0.00    +0.026 A 
ATOM     10  S   UNL     1      27.510   2.494 -19.340  0.00  0.00    -0.088 S 
ATOM     11  C   UNL     1      26.534   1.565 -18.283  0.00  0.00    +0.074 A 
ENDROOT
BRANCH   1  14
ATOM     12 CL   UNL     1      27.060  -0.199 -27.237  0.00  0.00    -0.082 Cl
ATOM     13  C   UNL     1      26.225   1.302 -27.135  0.00  0.00    +0.068 A 
ATOM     14  C   UNL     1      25.580   1.770 -25.939  0.00  0.00    +0.093 A 
ATOM     15  C   UNL     1      26.136   2.191 -28.379  0.00  0.00    +0.008 A 
ATOM     16  S   UNL     1      25.151   3.398 -26.205  0.00  0.00    -0.082 S 
ATOM     17  C   UNL     1      25.505   3.355 -27.901  0.00  0.00    +0.021 A 
ATOM     18  C   UNL     1      26.487   2.154 -29.873  0.00  0.00    +0.010 A 
ATOM     19  C   UNL     1      25.174   4.410 -28.750  0.00  0.00    +0.016 A 
ATOM     20  C   UNL     1      26.057   3.219 -30.702  0.00  0.00    +0.001 A 
ATOM     21  C   UNL     1      25.422   4.284 -30.107  0.00  0.00    +0.001 A 
ENDBRANCH   1  14
BRANCH  11  22
ATOM     22  C   UNL     1      27.381   1.114 -17.146  0.00  0.00    +0.251 C 
ATOM     23  O   UNL     1      28.336   0.320 -17.265  0.00  0.00    -0.270 OA
ATOM     24  N   UNL     1      27.099   1.453 -15.836  0.00  0.00    -0.307 N 
ATOM     25  H   UNL     1      27.164   0.753 -15.146  0.00  0.00    +0.149 HD
BRANCH  24  26
ATOM     26  C   UNL     1      26.719   2.765 -15.441  0.00  0.00    +0.139 C 
BRANCH  26  27
ATOM     27  C   UNL     1      25.207   2.886 -15.379  0.00  0.00    -0.030 A 
ATOM     28  C   UNL     1      24.443   3.722 -16.186  0.00  0.00    +0.007 A 
ATOM     29  C   UNL     1      24.531   2.106 -14.419  0.00  0.00    +0.007 A 
ATOM     30  C   UNL     1      23.082   3.733 -16.161  0.00  0.00    +0.023 A 
ATOM     31  C   UNL     1      23.145   2.098 -14.368  0.00  0.00    +0.023 A 
ATOM     32  C   UNL     1      22.380   2.974 -15.201  0.00  0.00    +0.030 A 
BRANCH  32  33
ATOM     33  N   UNL     1      20.984   3.007 -15.139  0.00  0.00    -0.328 N 
ATOM     34  C   UNL     1      20.172   2.992 -13.952  0.00  0.00    +0.118 C 
ATOM     35  C   UNL     1      20.036   2.279 -15.940  0.00  0.00    +0.118 C 
ATOM     36  C   UNL     1      19.307   1.992 -14.668  0.00  0.00    +0.049 C 
ATOM     37  C   UNL     1      19.281   0.605 -14.111  0.00  0.00    +0.172 C 
ATOM     38  C   UNL     1      17.826   2.104 -14.506  0.00  0.00    +0.172 C 
ATOM     39  O   UNL     1      17.948   0.993 -13.448  0.00  0.00    -0.378 OA
ENDBRANCH  32  33
ENDBRANCH  26  27
ENDBRANCH  24  26
ENDBRANCH  11  22
TORSDOF 5
ENDMDL
MODEL 2
REMARK VINA RESULT:   -11.803      2.613      6.085
REMARK INTER + INTRA:         -16.434
REMARK INTER:                 -14.354
REMARK INTRA:                  -2.080
REMARK UNBOUND:                -1.180
REMARK  Name = CTX-1020734
REMARK  5 active torsions:
REMARK  status: ('A' for Active; 'I' for Inactive)
REMARK    1  A    between atoms: C_3  and  C_6
REMARK    2  A    between atoms: C_21  and  C_22
REMARK    3  A    between atoms: N_24  and  C_25
REMARK    4  A    between atoms: C_25  and  C_26
REMARK    5  A    between atoms: C_31  and  N_32
REMARK                            x       y       z     vdW  Elec       q    Type
REMARK                         _______ _______ _______ _____ _____    ______ ____
ROOT
ATOM      1  C   UNL     1      24.616   0.464 -20.775  0.00  0.00    +0.255 C 
ATOM      2  O   UNL     1      25.387   0.254 -19.848  0.00  0.00    -0.269 OA
ATOM      3  N   UNL     1      23.162   0.439 -20.468  0.00  0.00    -0.292 N 
ATOM      4  C   UNL     1      22.290  -0.599 -19.435  0.00  0.00    +0.144 C 
ATOM      5  C   UNL     1      22.841   1.842 -20.441  0.00  0.00    +0.113 C 
ATOM      6  C   UNL     1      21.084   0.073 -18.541  0.00  0.00    -0.019 A 
ATOM      7  C   UNL     1      21.951   2.296 -19.327  0.00  0.00    +0.062 C 
ATOM      8  C   UNL     1      20.936   1.409 -18.730  0.00  0.00    -0.003 A 
ATOM      9  C   UNL     1      20.066  -0.163 -17.400  0.00  0.00    +0.026 A 
ATOM     10  S   UNL     1      19.410   2.029 -18.425  0.00  0.00    -0.088 S 
ATOM     11  C   UNL     1      19.379   1.051 -17.021  0.00  0.00    +0.074 A 
ENDROOT
BRANCH   1  14
ATOM     12 CL   UNL     1      23.599  -0.289 -24.085  0.00  0.00    -0.082 Cl
ATOM     13  C   UNL     1      24.718   0.893 -23.527  0.00  0.00    +0.068 A 
ATOM     14  C   UNL     1      25.138   1.004 -22.157  0.00  0.00    +0.093 A 
ATOM     15  C   UNL     1      25.292   1.904 -24.525  0.00  0.00    +0.008 A 
ATOM     16  S   UNL     1      26.448   2.092 -22.121  0.00  0.00    -0.082 S 
ATOM     17  C   UNL     1      26.235   2.616 -23.760  0.00  0.00    +0.021 A 
ATOM     18  C   UNL     1      25.119   2.334 -25.990  0.00  0.00    +0.010 A 
ATOM     19  C   UNL     1      26.949   3.689 -24.290  0.00  0.00    +0.016 A 
ATOM     20  C   UNL     1      25.811   3.479 -26.451  0.00  0.00    +0.001 A 
ATOM     21  C   UNL     1      26.680   4.101 -25.585  0.00  0.00    +0.001 A 
ENDBRANCH   1  14
BRANCH  11  22
ATOM     22  C   UNL     1      18.675   1.802 -15.947  0.00  0.00    +0.251 C 
ATOM     23  O   UNL     1      17.438   1.959 -15.908  0.00  0.00    -0.270 OA
ATOM     24  N   UNL     1      19.354   2.492 -14.961  0.00  0.00    -0.307 N 
ATOM     25  H   UNL     1      19.044   3.396 -14.721  0.00  0.00    +0.149 HD
BRANCH  24  26
ATOM     26  C   UNL     1      20.482   1.957 -14.279  0.00  0.00    +0.139 C 
BRANCH  26  27
ATOM     27  C   UNL     1      21.771   2.424 -14.932  0.00  0.00    -0.030 A 
ATOM     28  C   UNL     1      21.881   3.523 -15.777  0.00  0.00    +0.007 A 
ATOM     29  C   UNL     1      22.939   1.676 -14.674  0.00  0.00    +0.007 A 
ATOM     30  C   UNL     1      23.073   3.962 -16.268  0.00  0.00    +0.023 A 
ATOM     31  C   UNL     1      24.166   2.098 -15.163  0.00  0.00    +0.023 A 
ATOM     32  C   UNL     1      24.254   3.225 -16.040  0.00  0.00    +0.030 A 
BRANCH  32  33
ATOM     33  N   UNL     1      25.476   3.644 -16.572  0.00  0.00    -0.328 N 
ATOM     34  C   UNL     1      26.355   2.883 -17.419  0.00  0.00    +0.118 C 
ATOM     35  C   UNL     1      26.536   4.364 -15.917  0.00  0.00    +0.118 C 
ATOM     36  C   UNL     1      27.478   3.396 -16.560  0.00  0.00    +0.049 C 
ATOM     37  C   UNL     1      28.204   2.388 -15.729  0.00  0.00    +0.172 C 
ATOM     38  C   UNL     1      28.752   3.788 -17.233  0.00  0.00    +0.172 C 
ATOM     39  O   UNL     1      29.290   2.406 -16.820  0.00  0.00    -0.378 OA
ENDBRANCH  32  33
ENDBRANCH  26  27
ENDBRANCH  24  26
ENDBRANCH  11  22
TORSDOF 5
ENDMDL
MODEL 3
REMARK VINA RESULT:   -11.487      3.237      4.401
REMARK INTER + INTRA:         -16.025
REMARK INTER:                 -14.710
REMARK INTRA:                  -1.315
REMARK UNBOUND:                -1.180
REMARK  Name = CTX-1020734
REMARK  5 active torsions:
REMARK  status: ('A' for Active; 'I' for Inactive)
REMARK    1  A    between atoms: C_3  and  C_6
REMARK    2  A    between atoms: C_21  and  C_22
REMARK    3  A    between atoms: N_24  and  C_25
REMARK    4  A    between atoms: C_25  and  C_26
REMARK    5  A    between atoms: C_31  and  N_32
REMARK                            x       y       z     vdW  Elec       q    Type
REMARK                         _______ _______ _______ _____ _____    ______ ____
ROOT
ATOM      1  C   UNL     1      25.540   2.193 -24.101  0.00  0.00    +0.255 C 
ATOM      2  O   UNL     1      25.310   3.122 -23.339  0.00  0.00    -0.269 OA
ATOM      3  N   UNL     1      25.247   0.822 -23.608  0.00  0.00    -0.292 N 
ATOM      4  C   UNL     1      25.488   0.153 -22.058  0.00  0.00    +0.144 C 
ATOM      5  C   UNL     1      24.015   0.518 -24.287  0.00  0.00    +0.113 C 
ATOM      6  C   UNL     1      24.325  -0.861 -21.490  0.00  0.00    -0.019 A 
ATOM      7  C   UNL     1      22.953  -0.145 -23.470  0.00  0.00    +0.062 C 
ATOM      8  C   UNL     1      23.281  -1.035 -22.340  0.00  0.00    -0.003 A 
ATOM      9  C   UNL     1      23.817  -1.648 -20.259  0.00  0.00    +0.026 A 
ATOM     10  S   UNL     1      22.438  -2.473 -22.183  0.00  0.00    -0.088 S 
ATOM     11  C   UNL     1      22.521  -2.246 -20.488  0.00  0.00    +0.074 A 
ENDROOT
BRANCH   1  14
ATOM     12 CL   UNL     1      27.176   0.152 -26.492  0.00  0.00    -0.082 Cl
ATOM     13  C   UNL     1      26.377   1.661 -26.707  0.00  0.00    +0.068 A 
ATOM     14  C   UNL     1      25.866   2.449 -25.619  0.00  0.00    +0.093 A 
ATOM     15  C   UNL     1      26.171   2.199 -28.126  0.00  0.00    +0.008 A 
ATOM     16  S   UNL     1      25.435   3.968 -26.260  0.00  0.00    -0.082 S 
ATOM     17  C   UNL     1      25.610   3.473 -27.911  0.00  0.00    +0.021 A 
ATOM     18  C   UNL     1      26.366   1.762 -29.585  0.00  0.00    +0.010 A 
ATOM     19  C   UNL     1      25.208   4.284 -28.971  0.00  0.00    +0.016 A 
ATOM     20  C   UNL     1      25.866   2.592 -30.618  0.00  0.00    +0.001 A 
ATOM     21  C   UNL     1      25.311   3.800 -30.265  0.00  0.00    +0.001 A 
ENDBRANCH   1  14
BRANCH  11  22
ATOM     22  C   UNL     1      21.248  -2.733 -19.891  0.00  0.00    +0.251 C 
ATOM     23  O   UNL     1      21.151  -3.784 -19.227  0.00  0.00    -0.270 OA
ATOM     24  N   UNL     1      20.037  -2.112 -20.129  0.00  0.00    -0.307 N 
ATOM     25  H   UNL     1      19.252  -2.673 -20.325  0.00  0.00    +0.149 HD
BRANCH  24  26
ATOM     26  C   UNL     1      19.873  -0.699 -20.103  0.00  0.00    +0.139 C 
BRANCH  26  27
ATOM     27  C   UNL     1      20.279  -0.140 -18.751  0.00  0.00    -0.030 A 
ATOM     28  C   UNL     1      19.629  -0.410 -17.551  0.00  0.00    +0.007 A 
ATOM     29  C   UNL     1      21.386   0.733 -18.714  0.00  0.00    +0.007 A 
ATOM     30  C   UNL     1      20.082   0.039 -16.348  0.00  0.00    +0.023 A 
ATOM     31  C   UNL     1      21.867   1.207 -17.503  0.00  0.00    +0.023 A 
ATOM     32  C   UNL     1      21.177   0.925 -16.283  0.00  0.00    +0.030 A 
BRANCH  32  33
ATOM     33  N   UNL     1      21.625   1.424 -15.057  0.00  0.00    -0.328 N 
ATOM     34  C   UNL     1      20.812   1.883 -13.962  0.00  0.00    +0.118 C 
ATOM     35  C   UNL     1      22.696   2.352 -14.807  0.00  0.00    +0.118 C 
ATOM     36  C   UNL     1      21.766   3.041 -13.860  0.00  0.00    +0.049 C 
ATOM     37  C   UNL     1      21.220   4.393 -14.191  0.00  0.00    +0.172 C 
ATOM     38  C   UNL     1      22.154   3.511 -12.496  0.00  0.00    +0.172 C 
ATOM     39  O   UNL     1      21.094   4.614 -12.673  0.00  0.00    -0.378 OA
ENDBRANCH  32  33
ENDBRANCH  26  27
ENDBRANCH  24  26
ENDBRANCH  11  22
TORSDOF 5
ENDMDL
MODEL 4
REMARK VINA RESULT:   -10.570      5.356      6.563
REMARK INTER + INTRA:         -14.840
REMARK INTER:                 -14.745
REMARK INTRA:                  -0.095
REMARK UNBOUND:                -1.180
REMARK  Name = CTX-1020734
REMARK  5 active torsions:
REMARK  status: ('A' for Active; 'I' for Inactive)
REMARK    1  A    between atoms: C_3  and  C_6
REMARK    2  A    between atoms: C_21  and  C_22
REMARK    3  A    between atoms: N_24  and  C_25
REMARK    4  A    between atoms: C_25  and  C_26
REMARK    5  A    between atoms: C_31  and  N_32
REMARK                            x       y       z     vdW  Elec       q    Type
REMARK                         _______ _______ _______ _____ _____    ______ ____
ROOT
ATOM      1  C   UNL     1      30.368   6.023 -21.798  0.00  0.00    +0.255 C 
ATOM      2  O   UNL     1      29.813   6.552 -20.844  0.00  0.00    -0.269 OA
ATOM      3  N   UNL     1      29.857   4.698 -22.234  0.00  0.00    -0.292 N 
ATOM      4  C   UNL     1      29.314   3.383 -21.293  0.00  0.00    +0.144 C 
ATOM      5  C   UNL     1      29.100   5.043 -23.408  0.00  0.00    +0.113 C 
ATOM      6  C   UNL     1      28.008   2.553 -21.849  0.00  0.00    -0.019 A 
ATOM      7  C   UNL     1      27.766   4.381 -23.555  0.00  0.00    +0.062 C 
ATOM      8  C   UNL     1      27.499   3.037 -23.011  0.00  0.00    -0.003 A 
ATOM      9  C   UNL     1      26.960   1.464 -21.518  0.00  0.00    +0.026 A 
ATOM     10  S   UNL     1      26.666   1.939 -23.962  0.00  0.00    -0.088 S 
ATOM     11  C   UNL     1      25.927   1.374 -22.524  0.00  0.00    +0.074 A 
ENDROOT
BRANCH   1  14
ATOM     12 CL   UNL     1      33.563   7.353 -21.033  0.00  0.00    -0.082 Cl
ATOM     13  C   UNL     1      32.744   7.276 -22.544  0.00  0.00    +0.068 A 
ATOM     14  C   UNL     1      31.388   6.825 -22.689  0.00  0.00    +0.093 A 
ATOM     15  C   UNL     1      33.491   7.687 -23.818  0.00  0.00    +0.008 A 
ATOM     16  S   UNL     1      30.904   7.193 -24.281  0.00  0.00    -0.082 S 
ATOM     17  C   UNL     1      32.499   7.613 -24.814  0.00  0.00    +0.021 A 
ATOM     18  C   UNL     1      34.901   8.093 -24.270  0.00  0.00    +0.010 A 
ATOM     19  C   UNL     1      32.789   7.855 -26.156  0.00  0.00    +0.016 A 
ATOM     20  C   UNL     1      35.156   8.249 -25.653  0.00  0.00    +0.001 A 
ATOM     21  C   UNL     1      34.099   8.118 -26.524  0.00  0.00    +0.001 A 
ENDBRANCH   1  14
BRANCH  11  22
ATOM     22  C   UNL     1      24.517   1.014 -22.837  0.00  0.00    +0.251 C 
ATOM     23  O   UNL     1      24.090   0.827 -23.994  0.00  0.00    -0.270 OA
ATOM     24  N   UNL     1      23.533   0.974 -21.868  0.00  0.00    -0.307 N 
ATOM     25  H   UNL     1      22.657   1.374 -22.072  0.00  0.00    +0.149 HD
BRANCH  24  26
ATOM     26  C   UNL     1      23.730   0.382 -20.589  0.00  0.00    +0.139 C 
BRANCH  26  27
ATOM     27  C   UNL     1      23.003   1.175 -19.517  0.00  0.00    -0.030 A 
ATOM     28  C   UNL     1      21.753   1.762 -19.674  0.00  0.00    +0.007 A 
ATOM     29  C   UNL     1      23.655   1.341 -18.278  0.00  0.00    +0.007 A 
ATOM     30  C   UNL     1      21.097   2.387 -18.657  0.00  0.00    +0.023 A 
ATOM     31  C   UNL     1      23.012   1.975 -17.226  0.00  0.00    +0.023 A 
ATOM     32  C   UNL     1      21.730   2.581 -17.412  0.00  0.00    +0.030 A 
BRANCH  32  33
ATOM     33  N   UNL     1      21.082   3.256 -16.374  0.00  0.00    -0.328 N 
ATOM     34  C   UNL     1      21.610   4.335 -15.583  0.00  0.00    +0.118 C 
ATOM     35  C   UNL     1      20.290   2.704 -15.307  0.00  0.00    +0.118 C 
ATOM     36  C   UNL     1      21.034   3.622 -14.391  0.00  0.00    +0.049 C 
ATOM     37  C   UNL     1      22.009   3.070 -13.402  0.00  0.00    +0.172 C 
ATOM     38  C   UNL     1      20.390   4.447 -13.325  0.00  0.00    +0.172 C 
ATOM     39  O   UNL     1      21.715   4.319 -12.552  0.00  0.00    -0.378 OA
ENDBRANCH  32  33
ENDBRANCH  26  27
ENDBRANCH  24  26
ENDBRANCH  11  22
TORSDOF 5
ENDMDL
MODEL 5
REMARK VINA RESULT:   -10.232      3.731      6.673
REMARK INTER + INTRA:         -14.403
REMARK INTER:                 -14.043
REMARK INTRA:                  -0.360
REMARK UNBOUND:                -1.180
REMARK  Name = CTX-1020734
REMARK  5 active torsions:
REMARK  status: ('A' for Active; 'I' for Inactive)
REMARK    1  A    between atoms: C_3  and  C_6
REMARK    2  A    between atoms: C_21  and  C_22
REMARK    3  A    between atoms: N_24  and  C_25
REMARK    4  A    between atoms: C_25  and  C_26
REMARK    5  A    between atoms: C_31  and  N_32
REMARK                            x       y       z     vdW  Elec       q    Type
REMARK                         _______ _______ _______ _____ _____    ______ ____
ROOT
ATOM      1  C   UNL     1      24.986   1.347 -24.382  0.00  0.00    +0.255 C 
ATOM      2  O   UNL     1      24.475   0.238 -24.300  0.00  0.00    -0.269 OA
ATOM      3  N   UNL     1      25.363   2.017 -23.110  0.00  0.00    -0.292 N 
ATOM      4  C   UNL     1      24.538   2.052 -21.618  0.00  0.00    +0.144 C 
ATOM      5  C   UNL     1      26.789   1.828 -23.086  0.00  0.00    +0.113 C 
ATOM      6  C   UNL     1      25.452   1.950 -20.254  0.00  0.00    -0.019 A 
ATOM      7  C   UNL     1      27.383   1.425 -21.774  0.00  0.00    +0.062 C 
ATOM      8  C   UNL     1      26.784   1.834 -20.489  0.00  0.00    -0.003 A 
ATOM      9  C   UNL     1      25.424   1.785 -18.716  0.00  0.00    +0.026 A 
ATOM     10  S   UNL     1      27.795   2.381 -19.272  0.00  0.00    -0.088 S 
ATOM     11  C   UNL     1      26.747   1.608 -18.161  0.00  0.00    +0.074 A 
ENDROOT
BRANCH   1  14
ATOM     12 CL   UNL     1      27.011  -0.106 -26.901  0.00  0.00    -0.082 Cl
ATOM     13  C   UNL     1      26.152   1.385 -26.914  0.00  0.00    +0.068 A 
ATOM     14  C   UNL     1      25.471   1.917 -25.766  0.00  0.00    +0.093 A 
ATOM     15  C   UNL     1      26.081   2.192 -28.214  0.00  0.00    +0.008 A 
ATOM     16  S   UNL     1      25.026   3.518 -26.144  0.00  0.00    -0.082 S 
ATOM     17  C   UNL     1      25.422   3.374 -27.826  0.00  0.00    +0.021 A 
ATOM     18  C   UNL     1      26.471   2.067 -29.694  0.00  0.00    +0.010 A 
ATOM     19  C   UNL     1      25.098   4.369 -28.747  0.00  0.00    +0.016 A 
ATOM     20  C   UNL     1      26.046   3.070 -30.598  0.00  0.00    +0.001 A 
ATOM     21  C   UNL     1      25.381   4.161 -30.088  0.00  0.00    +0.001 A 
ENDBRANCH   1  14
BRANCH  11  22
ATOM     22  C   UNL     1      27.572   1.043 -17.059  0.00  0.00    +0.251 C 
ATOM     23  O   UNL     1      28.376   0.101 -17.208  0.00  0.00    -0.270 OA
ATOM     24  N   UNL     1      27.426   1.447 -15.746  0.00  0.00    -0.307 N 
ATOM     25  H   UNL     1      27.415   0.759 -15.041  0.00  0.00    +0.149 HD
BRANCH  24  26
ATOM     26  C   UNL     1      27.289   2.811 -15.366  0.00  0.00    +0.139 C 
BRANCH  26  27
ATOM     27  C   UNL     1      28.229   3.687 -16.175  0.00  0.00    -0.030 A 
ATOM     28  C   UNL     1      29.528   3.341 -16.533  0.00  0.00    +0.007 A 
ATOM     29  C   UNL     1      27.755   4.953 -16.577  0.00  0.00    +0.007 A 
ATOM     30  C   UNL     1      30.305   4.116 -17.338  0.00  0.00    +0.023 A 
ATOM     31  C   UNL     1      28.526   5.765 -17.395  0.00  0.00    +0.023 A 
ATOM     32  C   UNL     1      29.862   5.393 -17.742  0.00  0.00    +0.030 A 
BRANCH  32  33
ATOM     33  N   UNL     1      30.668   6.215 -18.535  0.00  0.00    -0.328 N 
ATOM     34  C   UNL     1      30.311   6.821 -19.790  0.00  0.00    +0.118 C 
ATOM     35  C   UNL     1      32.055   6.047 -18.875  0.00  0.00    +0.118 C 
ATOM     36  C   UNL     1      31.669   6.396 -20.276  0.00  0.00    +0.049 C 
ATOM     37  C   UNL     1      31.704   5.356 -21.349  0.00  0.00    +0.172 C 
ATOM     38  C   UNL     1      32.430   7.344 -21.145  0.00  0.00    +0.172 C 
ATOM     39  O   UNL     1      31.926   6.513 -22.339  0.00  0.00    -0.378 OA
ENDBRANCH  32  33
ENDBRANCH  26  27
ENDBRANCH  24  26
ENDBRANCH  11  22
TORSDOF 5
ENDMDL
