MODEL 1
REMARK VINA RESULT:   -12.440      0.000      0.000
REMARK INTER + INTRA:         -17.157
REMARK INTER:                 -16.076
REMARK INTRA:                  -1.081
REMARK UNBOUND:                -1.081
REMARK  Name = CTX-1020696
REMARK  6 active torsions:
REMARK  status: ('A' for Active; 'I' for Inactive)
REMARK    1  A    between atoms: C_2  and  C_4
REMARK    2  A    between atoms: N_3  and  C_5
REMARK    3  A    between atoms: C_5  and  C_8
REMARK    4  A    between atoms: C_19  and  C_22
REMARK    5  A    between atoms: C_21  and  C_24
REMARK    6  A    between atoms: C_28  and  C_33
REMARK                            x       y       z     vdW  Elec       q    Type
REMARK                         _______ _______ _______ _____ _____    ______ ____
ROOT
ATOM      1  C   UNL     1      28.746   4.608 -22.762  0.00  0.00    +0.126 A 
ATOM      2  N   UNL     1      28.434   3.571 -21.920  0.00  0.00    -0.245 NA
ATOM      3  C   UNL     1      28.112   4.839 -23.975  0.00  0.00    +0.033 A 
ATOM      4  C   UNL     1      27.411   2.747 -22.303  0.00  0.00    +0.063 A 
ATOM      5  C   UNL     1      27.104   3.978 -24.364  0.00  0.00    +0.008 A 
ATOM      6  C   UNL     1      26.742   2.913 -23.540  0.00  0.00    -0.023 A 
ATOM      7  C   UNL     1      27.000   1.608 -21.363  0.00  0.00    +0.163 C 
ATOM      8  C   UNL     1      25.598   2.022 -23.946  0.00  0.00    +0.056 C 
ATOM      9  N   UNL     1      25.702   1.009 -21.705  0.00  0.00    -0.289 N 
ATOM     10  C   UNL     1      25.490   0.746 -23.120  0.00  0.00    +0.113 C 
ATOM     11  C   UNL     1      24.871   0.478 -20.705  0.00  0.00    +0.283 C 
ATOM     12  O   UNL     1      25.325   0.181 -19.600  0.00  0.00    -0.267 OA
ENDROOT
BRANCH  11  13
ATOM     13  C   UNL     1      23.418   0.529 -20.977  0.00  0.00    +0.194 A 
ATOM     14  O   UNL     1      22.891   1.802 -20.855  0.00  0.00    -0.450 OA
ATOM     15  C   UNL     1      22.385  -0.330 -20.581  0.00  0.00    +0.008 A 
ATOM     16  C   UNL     1      22.049   1.720 -19.798  0.00  0.00    +0.136 A 
ATOM     17  C   UNL     1      21.783   0.385 -19.509  0.00  0.00    +0.024 A 
ATOM     18  C   UNL     1      21.928  -1.639 -21.101  0.00  0.00    +0.048 C 
ATOM     19  C   UNL     1      21.565   2.795 -19.076  0.00  0.00    +0.047 A 
ATOM     20  C   UNL     1      20.993   0.087 -18.390  0.00  0.00    +0.012 A 
ATOM     21  C   UNL     1      20.833   2.482 -17.940  0.00  0.00    +0.004 A 
ATOM     22  C   UNL     1      20.565   1.148 -17.584  0.00  0.00    +0.001 A 
ENDBRANCH  11  13
BRANCH   1  24
ATOM     23  O   UNL     1      30.612   5.269 -21.449  0.00  0.00    -0.269 OA
ATOM     24  C   UNL     1      29.832   5.564 -22.361  0.00  0.00    +0.263 C 
ATOM     25  N   UNL     1      29.895   6.760 -23.033  0.00  0.00    -0.306 N 
ATOM     26  H   UNL     1      29.281   6.921 -23.787  0.00  0.00    +0.149 HD
BRANCH  25  27
ATOM     27  C   UNL     1      30.840   7.791 -22.663  0.00  0.00    +0.140 C 
BRANCH  27  28
ATOM     28  C   UNL     1      31.959   7.942 -23.661  0.00  0.00    -0.030 A 
ATOM     29  C   UNL     1      33.256   8.243 -23.227  0.00  0.00    +0.005 A 
ATOM     30  C   UNL     1      31.745   7.712 -25.026  0.00  0.00    +0.005 A 
ATOM     31  C   UNL     1      34.309   8.321 -24.140  0.00  0.00    +0.004 A 
ATOM     32  C   UNL     1      32.802   7.792 -25.941  0.00  0.00    +0.004 A 
ATOM     33  C   UNL     1      34.100   8.092 -25.508  0.00  0.00    -0.044 A 
BRANCH  33  34
ATOM     34  C   UNL     1      35.253   8.137 -26.498  0.00  0.00    +0.023 C 
ATOM     35  C   UNL     1      36.266   9.233 -26.124  0.00  0.00    +0.036 C 
ATOM     36  C   UNL     1      34.766   8.313 -27.945  0.00  0.00    +0.036 C 
ATOM     37  C   UNL     1      37.338   9.382 -27.194  0.00  0.00    +0.160 C 
ATOM     38  C   UNL     1      35.942   8.511 -28.892  0.00  0.00    +0.160 C 
ATOM     39  O   UNL     1      36.748   9.610 -28.472  0.00  0.00    -0.380 OA
ENDBRANCH  33  34
ENDBRANCH  27  28
ENDBRANCH  25  27
ENDBRANCH   1  24
TORSDOF 5
ENDMDL
MODEL 2
REMARK VINA RESULT:   -12.365      1.493      2.035
REMARK INTER + INTRA:         -17.061
REMARK INTER:                 -16.419
REMARK INTRA:                  -0.642
REMARK UNBOUND:                -1.081
REMARK  Name = CTX-1020696
REMARK  6 active torsions:
REMARK  status: ('A' for Active; 'I' for Inactive)
REMARK    1  A    between atoms: C_2  and  C_4
REMARK    2  A    between atoms: N_3  and  C_5
REMARK    3  A    between atoms: C_5  and  C_8
REMARK    4  A    between atoms: C_19  and  C_22
REMARK    5  A    between atoms: C_21  and  C_24
REMARK    6  A    between atoms: C_28  and  C_33
REMARK                            x       y       z     vdW  Elec       q    Type
REMARK                         _______ _______ _______ _____ _____    ______ ____
ROOT
ATOM      1  C   UNL     1      28.673   5.083 -23.022  0.00  0.00    +0.126 A 
ATOM      2  N   UNL     1      28.498   3.893 -22.364  0.00  0.00    -0.245 NA
ATOM      3  C   UNL     1      27.955   5.459 -24.149  0.00  0.00    +0.033 A 
ATOM      4  C   UNL     1      27.530   3.054 -22.844  0.00  0.00    +0.063 A 
ATOM      5  C   UNL     1      27.005   4.585 -24.642  0.00  0.00    +0.008 A 
ATOM      6  C   UNL     1      26.782   3.366 -24.005  0.00  0.00    -0.023 A 
ATOM      7  C   UNL     1      27.271   1.738 -22.103  0.00  0.00    +0.163 C 
ATOM      8  C   UNL     1      25.697   2.454 -24.516  0.00  0.00    +0.056 C 
ATOM      9  N   UNL     1      26.011   1.087 -22.493  0.00  0.00    -0.289 N 
ATOM     10  C   UNL     1      25.745   1.051 -23.923  0.00  0.00    +0.113 C 
ATOM     11  C   UNL     1      25.286   0.317 -21.569  0.00  0.00    +0.283 C 
ATOM     12  O   UNL     1      25.825  -0.122 -20.553  0.00  0.00    -0.267 OA
ENDROOT
BRANCH  11  13
ATOM     13  C   UNL     1      23.822   0.277 -21.771  0.00  0.00    +0.194 A 
ATOM     14  O   UNL     1      23.114   0.280 -20.582  0.00  0.00    -0.450 OA
ATOM     15  C   UNL     1      23.043  -0.483 -22.653  0.00  0.00    +0.008 A 
ATOM     16  C   UNL     1      22.506  -0.929 -20.546  0.00  0.00    +0.136 A 
ATOM     17  C   UNL     1      22.533  -1.509 -21.811  0.00  0.00    +0.024 A 
ATOM     18  C   UNL     1      22.731  -0.322 -24.093  0.00  0.00    +0.048 C 
ATOM     19  C   UNL     1      21.984  -1.528 -19.415  0.00  0.00    +0.047 A 
ATOM     20  C   UNL     1      22.024  -2.806 -21.963  0.00  0.00    +0.012 A 
ATOM     21  C   UNL     1      21.537  -2.832 -19.570  0.00  0.00    +0.004 A 
ATOM     22  C   UNL     1      21.574  -3.476 -20.820  0.00  0.00    +0.001 A 
ENDBRANCH  11  13
BRANCH   1  24
ATOM     23  O   UNL     1      29.818   6.233 -21.286  0.00  0.00    -0.269 OA
ATOM     24  C   UNL     1      29.694   6.054 -22.503  0.00  0.00    +0.263 C 
ATOM     25  N   UNL     1      30.447   6.729 -23.432  0.00  0.00    -0.306 N 
ATOM     26  H   UNL     1      30.344   6.509 -24.387  0.00  0.00    +0.149 HD
BRANCH  25  27
ATOM     27  C   UNL     1      31.391   7.755 -23.045  0.00  0.00    +0.140 C 
BRANCH  27  28
ATOM     28  C   UNL     1      32.475   7.967 -24.070  0.00  0.00    -0.030 A 
ATOM     29  C   UNL     1      33.768   8.320 -23.666  0.00  0.00    +0.005 A 
ATOM     30  C   UNL     1      32.235   7.744 -25.432  0.00  0.00    +0.005 A 
ATOM     31  C   UNL     1      34.793   8.456 -24.605  0.00  0.00    +0.004 A 
ATOM     32  C   UNL     1      33.263   7.881 -26.373  0.00  0.00    +0.004 A 
ATOM     33  C   UNL     1      34.558   8.234 -25.970  0.00  0.00    -0.044 A 
BRANCH  33  34
ATOM     34  C   UNL     1      35.681   8.341 -26.989  0.00  0.00    +0.023 C 
ATOM     35  C   UNL     1      36.643   9.489 -26.639  0.00  0.00    +0.036 C 
ATOM     36  C   UNL     1      35.149   8.492 -28.422  0.00  0.00    +0.036 C 
ATOM     37  C   UNL     1      37.679   9.696 -27.735  0.00  0.00    +0.160 C 
ATOM     38  C   UNL     1      36.288   8.754 -29.399  0.00  0.00    +0.160 C 
ATOM     39  O   UNL     1      37.045   9.893 -28.997  0.00  0.00    -0.380 OA
ENDBRANCH  33  34
ENDBRANCH  27  28
ENDBRANCH  25  27
ENDBRANCH   1  24
TORSDOF 5
ENDMDL
MODEL 3
REMARK VINA RESULT:   -11.354      2.966     12.562
REMARK INTER + INTRA:         -15.755
REMARK INTER:                 -15.605
REMARK INTRA:                  -0.150
REMARK UNBOUND:                -1.081
REMARK  Name = CTX-1020696
REMARK  6 active torsions:
REMARK  status: ('A' for Active; 'I' for Inactive)
REMARK    1  A    between atoms: C_2  and  C_4
REMARK    2  A    between atoms: N_3  and  C_5
REMARK    3  A    between atoms: C_5  and  C_8
REMARK    4  A    between atoms: C_19  and  C_22
REMARK    5  A    between atoms: C_21  and  C_24
REMARK    6  A    between atoms: C_28  and  C_33
REMARK                            x       y       z     vdW  Elec       q    Type
REMARK                         _______ _______ _______ _____ _____    ______ ____
ROOT
ATOM      1  C   UNL     1      29.206   4.431 -17.717  0.00  0.00    +0.126 A 
ATOM      2  N   UNL     1      29.295   4.131 -19.052  0.00  0.00    -0.245 NA
ATOM      3  C   UNL     1      29.991   5.383 -17.081  0.00  0.00    +0.033 A 
ATOM      4  C   UNL     1      30.197   4.849 -19.791  0.00  0.00    +0.063 A 
ATOM      5  C   UNL     1      30.921   6.074 -17.834  0.00  0.00    +0.008 A 
ATOM      6  C   UNL     1      31.046   5.815 -19.197  0.00  0.00    -0.023 A 
ATOM      7  C   UNL     1      30.287   4.578 -21.296  0.00  0.00    +0.163 C 
ATOM      8  C   UNL     1      32.017   6.623 -20.017  0.00  0.00    +0.056 C 
ATOM      9  N   UNL     1      31.026   5.615 -22.032  0.00  0.00    -0.289 N 
ATOM     10  C   UNL     1      32.265   6.058 -21.410  0.00  0.00    +0.113 C 
ATOM     11  C   UNL     1      30.694   5.925 -23.361  0.00  0.00    +0.283 C 
ATOM     12  O   UNL     1      30.044   5.138 -24.049  0.00  0.00    -0.267 OA
ENDROOT
BRANCH  11  13
ATOM     13  C   UNL     1      30.957   7.318 -23.783  0.00  0.00    +0.194 A 
ATOM     14  O   UNL     1      31.167   7.437 -25.145  0.00  0.00    -0.450 OA
ATOM     15  C   UNL     1      31.759   8.310 -23.205  0.00  0.00    +0.008 A 
ATOM     16  C   UNL     1      32.458   7.828 -25.257  0.00  0.00    +0.136 A 
ATOM     17  C   UNL     1      32.920   8.286 -24.026  0.00  0.00    +0.024 A 
ATOM     18  C   UNL     1      31.535   9.230 -22.066  0.00  0.00    +0.048 C 
ATOM     19  C   UNL     1      33.225   7.738 -26.403  0.00  0.00    +0.047 A 
ATOM     20  C   UNL     1      34.266   8.659 -23.914  0.00  0.00    +0.012 A 
ATOM     21  C   UNL     1      34.567   8.057 -26.261  0.00  0.00    +0.004 A 
ATOM     22  C   UNL     1      35.092   8.492 -25.032  0.00  0.00    +0.001 A 
ENDBRANCH  11  13
BRANCH   1  24
ATOM     23  O   UNL     1      28.538   3.196 -15.800  0.00  0.00    -0.269 OA
ATOM     24  C   UNL     1      28.199   3.699 -16.877  0.00  0.00    +0.263 C 
ATOM     25  N   UNL     1      26.921   3.603 -17.370  0.00  0.00    -0.306 N 
ATOM     26  H   UNL     1      26.693   4.067 -18.208  0.00  0.00    +0.149 HD
BRANCH  25  27
ATOM     27  C   UNL     1      25.898   2.839 -16.689  0.00  0.00    +0.140 C 
BRANCH  27  28
ATOM     28  C   UNL     1      25.093   1.977 -17.625  0.00  0.00    -0.030 A 
ATOM     29  C   UNL     1      25.730   1.237 -18.628  0.00  0.00    +0.005 A 
ATOM     30  C   UNL     1      23.708   1.838 -17.467  0.00  0.00    +0.005 A 
ATOM     31  C   UNL     1      24.997   0.388 -19.459  0.00  0.00    +0.004 A 
ATOM     32  C   UNL     1      22.973   0.986 -18.301  0.00  0.00    +0.004 A 
ATOM     33  C   UNL     1      23.610   0.245 -19.305  0.00  0.00    -0.044 A 
BRANCH  33  34
ATOM     34  C   UNL     1      22.816  -0.711 -20.181  0.00  0.00    +0.023 C 
ATOM     35  C   UNL     1      22.022  -1.717 -19.331  0.00  0.00    +0.036 C 
ATOM     36  C   UNL     1      23.709  -1.439 -21.198  0.00  0.00    +0.036 C 
ATOM     37  C   UNL     1      21.350  -2.768 -20.204  0.00  0.00    +0.160 C 
ATOM     38  C   UNL     1      22.918  -2.499 -21.952  0.00  0.00    +0.160 C 
ATOM     39  O   UNL     1      22.304  -3.412 -21.044  0.00  0.00    -0.380 OA
ENDBRANCH  33  34
ENDBRANCH  27  28
ENDBRANCH  25  27
ENDBRANCH   1  24
TORSDOF 5
ENDMDL
MODEL 4
REMARK VINA RESULT:   -11.294      3.812      6.641
REMARK INTER + INTRA:         -15.676
REMARK INTER:                 -14.724
REMARK INTRA:                  -0.952
REMARK UNBOUND:                -1.081
REMARK  Name = CTX-1020696
REMARK  6 active torsions:
REMARK  status: ('A' for Active; 'I' for Inactive)
REMARK    1  A    between atoms: C_2  and  C_4
REMARK    2  A    between atoms: N_3  and  C_5
REMARK    3  A    between atoms: C_5  and  C_8
REMARK    4  A    between atoms: C_19  and  C_22
REMARK    5  A    between atoms: C_21  and  C_24
REMARK    6  A    between atoms: C_28  and  C_33
REMARK                            x       y       z     vdW  Elec       q    Type
REMARK                         _______ _______ _______ _____ _____    ______ ____
ROOT
ATOM      1  C   UNL     1      25.728   2.829 -15.874  0.00  0.00    +0.126 A 
ATOM      2  N   UNL     1      25.268   2.565 -17.138  0.00  0.00    -0.245 NA
ATOM      3  C   UNL     1      24.970   2.664 -14.722  0.00  0.00    +0.033 A 
ATOM      4  C   UNL     1      23.993   2.079 -17.246  0.00  0.00    +0.063 A 
ATOM      5  C   UNL     1      23.673   2.206 -14.851  0.00  0.00    +0.008 A 
ATOM      6  C   UNL     1      23.160   1.914 -16.113  0.00  0.00    -0.023 A 
ATOM      7  C   UNL     1      23.463   1.724 -18.640  0.00  0.00    +0.163 C 
ATOM      8  C   UNL     1      21.767   1.353 -16.232  0.00  0.00    +0.056 C 
ATOM      9  N   UNL     1      22.237   0.913 -18.608  0.00  0.00    -0.289 N 
ATOM     10  C   UNL     1      21.226   1.348 -17.657  0.00  0.00    +0.113 C 
ATOM     11  C   UNL     1      21.970  -0.022 -19.621  0.00  0.00    +0.283 C 
ATOM     12  O   UNL     1      22.539   0.048 -20.710  0.00  0.00    -0.267 OA
ENDROOT
BRANCH  11  13
ATOM     13  C   UNL     1      21.169  -1.198 -19.219  0.00  0.00    +0.194 A 
ATOM     14  O   UNL     1      21.945  -2.308 -18.938  0.00  0.00    -0.450 OA
ATOM     15  C   UNL     1      19.978  -1.714 -19.747  0.00  0.00    +0.008 A 
ATOM     16  C   UNL     1      21.618  -3.204 -19.898  0.00  0.00    +0.136 A 
ATOM     17  C   UNL     1      20.435  -2.816 -20.521  0.00  0.00    +0.024 A 
ATOM     18  C   UNL     1      18.561  -1.320 -19.572  0.00  0.00    +0.048 C 
ATOM     19  C   UNL     1      22.367  -4.311 -20.248  0.00  0.00    +0.047 A 
ATOM     20  C   UNL     1      19.971  -3.574 -21.606  0.00  0.00    +0.012 A 
ATOM     21  C   UNL     1      21.925  -5.017 -21.358  0.00  0.00    +0.004 A 
ATOM     22  C   UNL     1      20.756  -4.646 -22.045  0.00  0.00    +0.001 A 
ENDBRANCH  11  13
BRANCH   1  24
ATOM     23  O   UNL     1      27.855   2.852 -14.814  0.00  0.00    -0.269 OA
ATOM     24  C   UNL     1      27.137   3.321 -15.704  0.00  0.00    +0.263 C 
ATOM     25  N   UNL     1      27.563   4.311 -16.556  0.00  0.00    -0.306 N 
ATOM     26  H   UNL     1      26.966   4.610 -17.280  0.00  0.00    +0.149 HD
BRANCH  25  27
ATOM     27  C   UNL     1      28.866   4.923 -16.418  0.00  0.00    +0.140 C 
BRANCH  27  28
ATOM     28  C   UNL     1      29.554   5.135 -17.742  0.00  0.00    -0.030 A 
ATOM     29  C   UNL     1      29.601   4.104 -18.686  0.00  0.00    +0.005 A 
ATOM     30  C   UNL     1      30.091   6.383 -18.084  0.00  0.00    +0.005 A 
ATOM     31  C   UNL     1      30.182   4.314 -19.939  0.00  0.00    +0.004 A 
ATOM     32  C   UNL     1      30.673   6.593 -19.340  0.00  0.00    +0.004 A 
ATOM     33  C   UNL     1      30.721   5.561 -20.286  0.00  0.00    -0.044 A 
BRANCH  33  34
ATOM     34  C   UNL     1      31.316   5.803 -21.665  0.00  0.00    +0.023 C 
ATOM     35  C   UNL     1      32.624   6.607 -21.573  0.00  0.00    +0.036 C 
ATOM     36  C   UNL     1      30.319   6.488 -22.612  0.00  0.00    +0.036 C 
ATOM     37  C   UNL     1      33.140   6.982 -22.956  0.00  0.00    +0.160 C 
ATOM     38  C   UNL     1      30.988   6.859 -23.928  0.00  0.00    +0.160 C 
ATOM     39  O   UNL     1      32.137   7.672 -23.698  0.00  0.00    -0.380 OA
ENDBRANCH  33  34
ENDBRANCH  27  28
ENDBRANCH  25  27
ENDBRANCH   1  24
TORSDOF 5
ENDMDL
MODEL 5
REMARK VINA RESULT:   -10.973      3.177     12.736
REMARK INTER + INTRA:         -15.262
REMARK INTER:                 -14.989
REMARK INTRA:                  -0.274
REMARK UNBOUND:                -1.081
REMARK  Name = CTX-1020696
REMARK  6 active torsions:
REMARK  status: ('A' for Active; 'I' for Inactive)
REMARK    1  A    between atoms: C_2  and  C_4
REMARK    2  A    between atoms: N_3  and  C_5
REMARK    3  A    between atoms: C_5  and  C_8
REMARK    4  A    between atoms: C_19  and  C_22
REMARK    5  A    between atoms: C_21  and  C_24
REMARK    6  A    between atoms: C_28  and  C_33
REMARK                            x       y       z     vdW  Elec       q    Type
REMARK                         _______ _______ _______ _____ _____    ______ ____
ROOT
ATOM      1  C   UNL     1      29.357   4.408 -17.398  0.00  0.00    +0.126 A 
ATOM      2  N   UNL     1      29.401   4.062 -18.724  0.00  0.00    -0.245 NA
ATOM      3  C   UNL     1      30.118   5.423 -16.834  0.00  0.00    +0.033 A 
ATOM      4  C   UNL     1      30.228   4.797 -19.530  0.00  0.00    +0.063 A 
ATOM      5  C   UNL     1      30.973   6.133 -17.655  0.00  0.00    +0.008 A 
ATOM      6  C   UNL     1      31.050   5.828 -19.012  0.00  0.00    -0.023 A 
ATOM      7  C   UNL     1      30.265   4.473 -21.027  0.00  0.00    +0.163 C 
ATOM      8  C   UNL     1      31.938   6.654 -19.906  0.00  0.00    +0.056 C 
ATOM      9  N   UNL     1      30.912   5.518 -21.834  0.00  0.00    -0.289 N 
ATOM     10  C   UNL     1      32.152   6.049 -21.288  0.00  0.00    +0.113 C 
ATOM     11  C   UNL     1      30.503   5.760 -23.156  0.00  0.00    +0.283 C 
ATOM     12  O   UNL     1      29.866   4.914 -23.784  0.00  0.00    -0.267 OA
ENDROOT
BRANCH  11  13
ATOM     13  C   UNL     1      30.671   7.147 -23.640  0.00  0.00    +0.194 A 
ATOM     14  O   UNL     1      30.959   7.215 -24.991  0.00  0.00    -0.450 OA
ATOM     15  C   UNL     1      31.345   8.236 -23.072  0.00  0.00    +0.008 A 
ATOM     16  C   UNL     1      32.216   7.714 -25.046  0.00  0.00    +0.136 A 
ATOM     17  C   UNL     1      32.555   8.275 -23.818  0.00  0.00    +0.024 A 
ATOM     18  C   UNL     1      30.967   9.189 -22.003  0.00  0.00    +0.048 C 
ATOM     19  C   UNL     1      33.061   7.636 -26.136  0.00  0.00    +0.047 A 
ATOM     20  C   UNL     1      33.853   8.774 -23.645  0.00  0.00    +0.012 A 
ATOM     21  C   UNL     1      34.359   8.081 -25.932  0.00  0.00    +0.004 A 
ATOM     22  C   UNL     1      34.762   8.624 -24.699  0.00  0.00    +0.001 A 
ENDBRANCH  11  13
BRANCH   1  24
ATOM     23  O   UNL     1      28.838   2.670 -15.862  0.00  0.00    -0.269 OA
ATOM     24  C   UNL     1      28.430   3.657 -16.485  0.00  0.00    +0.263 C 
ATOM     25  N   UNL     1      27.134   4.103 -16.401  0.00  0.00    -0.306 N 
ATOM     26  H   UNL     1      26.877   4.926 -16.878  0.00  0.00    +0.149 HD
BRANCH  25  27
ATOM     27  C   UNL     1      26.136   3.398 -15.627  0.00  0.00    +0.140 C 
BRANCH  27  28
ATOM     28  C   UNL     1      25.069   2.769 -16.485  0.00  0.00    -0.030 A 
ATOM     29  C   UNL     1      25.387   2.269 -17.753  0.00  0.00    +0.005 A 
ATOM     30  C   UNL     1      23.763   2.603 -16.007  0.00  0.00    +0.005 A 
ATOM     31  C   UNL     1      24.418   1.629 -18.527  0.00  0.00    +0.004 A 
ATOM     32  C   UNL     1      22.791   1.961 -16.784  0.00  0.00    +0.004 A 
ATOM     33  C   UNL     1      23.108   1.460 -18.054  0.00  0.00    -0.044 A 
BRANCH  33  34
ATOM     34  C   UNL     1      22.063   0.726 -18.878  0.00  0.00    +0.023 C 
ATOM     35  C   UNL     1      20.682   0.780 -18.202  0.00  0.00    +0.036 C 
ATOM     36  C   UNL     1      22.472  -0.726 -19.171  0.00  0.00    +0.036 C 
ATOM     37  C   UNL     1      19.670  -0.081 -18.946  0.00  0.00    +0.160 C 
ATOM     38  C   UNL     1      21.343  -1.480 -19.860  0.00  0.00    +0.160 C 
ATOM     39  O   UNL     1      20.148  -1.417 -19.083  0.00  0.00    -0.380 OA
ENDBRANCH  33  34
ENDBRANCH  27  28
ENDBRANCH  25  27
ENDBRANCH   1  24
TORSDOF 5
ENDMDL
