MODEL 1
REMARK VINA RESULT:   -11.061      0.000      0.000
REMARK INTER + INTRA:         -14.155
REMARK INTER:                 -13.648
REMARK INTRA:                  -0.508
REMARK UNBOUND:                -0.508
REMARK  Name = CTX-1020733
REMARK  4 active torsions:
REMARK  status: ('A' for Active; 'I' for Inactive)
REMARK    1  A    between atoms: C_3  and  C_6
REMARK    2  A    between atoms: C_21  and  C_22
REMARK    3  A    between atoms: N_24  and  C_25
REMARK    4  A    between atoms: C_25  and  C_26
REMARK                            x       y       z     vdW  Elec       q    Type
REMARK                         _______ _______ _______ _____ _____    ______ ____
ROOT
ATOM      1  C   UNL     1      27.292   3.535 -23.388  0.00  0.00    +0.255 C 
ATOM      2  O   UNL     1      27.013   4.318 -24.334  0.00  0.00    -0.269 OA
ATOM      3  N   UNL     1      28.645   3.542 -22.551  0.00  0.00    -0.292 N 
ATOM      4  C   UNL     1      30.284   3.575 -21.563  0.00  0.00    +0.144 C 
ATOM      5  C   UNL     1      28.707   4.778 -23.254  0.00  0.00    +0.113 C 
ATOM      6  C   UNL     1      31.363   5.079 -21.579  0.00  0.00    -0.019 A 
ATOM      7  C   UNL     1      29.977   5.288 -23.272  0.00  0.00    +0.062 C 
ATOM      8  C   UNL     1      30.760   5.944 -22.393  0.00  0.00    -0.003 A 
ATOM      9  C   UNL     1      32.617   5.932 -21.470  0.00  0.00    +0.026 A 
ATOM     10  S   UNL     1      30.835   7.535 -22.489  0.00  0.00    -0.088 S 
ATOM     11  C   UNL     1      32.487   7.206 -22.207  0.00  0.00    +0.074 A 
ENDROOT
BRANCH   1  14
ATOM     12 CL   UNL     1      25.871   1.605 -25.770  0.00  0.00    -0.082 Cl
ATOM     13  C   UNL     1      25.538   1.728 -24.106  0.00  0.00    +0.068 A 
ATOM     14  C   UNL     1      26.195   2.581 -23.273  0.00  0.00    +0.093 A 
ATOM     15  C   UNL     1      24.545   0.914 -23.436  0.00  0.00    +0.008 A 
ATOM     16  S   UNL     1      25.538   2.447 -21.645  0.00  0.00    -0.082 S 
ATOM     17  C   UNL     1      24.468   1.221 -22.078  0.00  0.00    +0.021 A 
ATOM     18  C   UNL     1      23.680  -0.109 -23.920  0.00  0.00    +0.010 A 
ATOM     19  C   UNL     1      23.594   0.570 -21.204  0.00  0.00    +0.016 A 
ATOM     20  C   UNL     1      22.797  -0.768 -23.057  0.00  0.00    +0.001 A 
ATOM     21  C   UNL     1      22.768  -0.419 -21.716  0.00  0.00    +0.001 A 
ENDBRANCH   1  14
BRANCH  11  22
ATOM     22  C   UNL     1      33.213   8.355 -22.735  0.00  0.00    +0.251 C 
ATOM     23  O   UNL     1      33.159   9.490 -22.280  0.00  0.00    -0.270 OA
ATOM     24  N   UNL     1      33.911   8.090 -23.942  0.00  0.00    -0.307 N 
ATOM     25  H   UNL     1      33.933   7.175 -24.307  0.00  0.00    +0.149 HD
BRANCH  24  26
ATOM     26  C   UNL     1      34.583   9.143 -24.627  0.00  0.00    +0.140 C 
BRANCH  26  27
ATOM     27  C   UNL     1      35.216   8.531 -25.819  0.00  0.00    -0.027 A 
ATOM     28  C   UNL     1      36.588   8.279 -25.835  0.00  0.00    +0.025 A 
ATOM     29  C   UNL     1      34.444   8.276 -26.944  0.00  0.00    +0.025 A 
ATOM     30  C   UNL     1      37.120   7.717 -26.970  0.00  0.00    +0.111 A 
ATOM     31  C   UNL     1      35.059   7.658 -28.004  0.00  0.00    +0.111 A 
ATOM     32  N   UNL     1      36.383   7.373 -28.046  0.00  0.00    -0.263 NA
ENDBRANCH  26  27
ENDBRANCH  24  26
ENDBRANCH  11  22
TORSDOF 4
ENDMDL
MODEL 2
REMARK VINA RESULT:   -10.821      6.654      9.154
REMARK INTER + INTRA:         -13.860
REMARK INTER:                 -13.388
REMARK INTRA:                  -0.472
REMARK UNBOUND:                -0.508
REMARK  Name = CTX-1020733
REMARK  4 active torsions:
REMARK  status: ('A' for Active; 'I' for Inactive)
REMARK    1  A    between atoms: C_3  and  C_6
REMARK    2  A    between atoms: C_21  and  C_22
REMARK    3  A    between atoms: N_24  and  C_25
REMARK    4  A    between atoms: C_25  and  C_26
REMARK                            x       y       z     vdW  Elec       q    Type
REMARK                         _______ _______ _______ _____ _____    ______ ____
ROOT
ATOM      1  C   UNL     1      26.372   2.515 -24.719  0.00  0.00    +0.255 C 
ATOM      2  O   UNL     1      27.245   3.343 -24.350  0.00  0.00    -0.269 OA
ATOM      3  N   UNL     1      25.646   1.456 -23.779  0.00  0.00    -0.292 N 
ATOM      4  C   UNL     1      24.791   0.194 -22.622  0.00  0.00    +0.144 C 
ATOM      5  C   UNL     1      26.279   2.323 -22.844  0.00  0.00    +0.113 C 
ATOM      6  C   UNL     1      24.805   0.438 -20.787  0.00  0.00    -0.019 A 
ATOM      7  C   UNL     1      26.367   1.751 -21.603  0.00  0.00    +0.062 C 
ATOM      8  C   UNL     1      25.517   1.545 -20.578  0.00  0.00    -0.003 A 
ATOM      9  C   UNL     1      24.747   0.099 -19.306  0.00  0.00    +0.026 A 
ATOM     10  S   UNL     1      25.526   2.584 -19.367  0.00  0.00    -0.088 S 
ATOM     11  C   UNL     1      25.395   1.134 -18.474  0.00  0.00    +0.074 A 
ENDROOT
BRANCH   1  14
ATOM     12 CL   UNL     1      27.236   0.356 -27.170  0.00  0.00    -0.082 Cl
ATOM     13  C   UNL     1      26.491   1.883 -27.258  0.00  0.00    +0.068 A 
ATOM     14  C   UNL     1      26.226   2.649 -26.164  0.00  0.00    +0.093 A 
ATOM     15  C   UNL     1      26.055   2.481 -28.503  0.00  0.00    +0.008 A 
ATOM     16  S   UNL     1      25.495   4.170 -26.666  0.00  0.00    -0.082 S 
ATOM     17  C   UNL     1      25.485   3.735 -28.292  0.00  0.00    +0.021 A 
ATOM     18  C   UNL     1      26.107   2.009 -29.846  0.00  0.00    +0.010 A 
ATOM     19  C   UNL     1      24.975   4.518 -29.331  0.00  0.00    +0.016 A 
ATOM     20  C   UNL     1      25.602   2.783 -30.897  0.00  0.00    +0.001 A 
ATOM     21  C   UNL     1      25.046   4.021 -30.624  0.00  0.00    +0.001 A 
ENDBRANCH   1  14
BRANCH  11  22
ATOM     22  C   UNL     1      25.912   1.442 -17.146  0.00  0.00    +0.251 C 
ATOM     23  O   UNL     1      25.369   2.181 -16.335  0.00  0.00    -0.270 OA
ATOM     24  N   UNL     1      27.205   0.914 -16.894  0.00  0.00    -0.307 N 
ATOM     25  H   UNL     1      27.638   0.335 -17.562  0.00  0.00    +0.149 HD
BRANCH  24  26
ATOM     26  C   UNL     1      27.878   1.219 -15.675  0.00  0.00    +0.140 C 
BRANCH  26  27
ATOM     27  C   UNL     1      28.913   2.226 -16.009  0.00  0.00    -0.027 A 
ATOM     28  C   UNL     1      28.739   3.075 -17.102  0.00  0.00    +0.025 A 
ATOM     29  C   UNL     1      30.086   2.267 -15.268  0.00  0.00    +0.025 A 
ATOM     30  C   UNL     1      29.735   3.984 -17.367  0.00  0.00    +0.111 A 
ATOM     31  C   UNL     1      30.992   3.252 -15.577  0.00  0.00    +0.111 A 
ATOM     32  N   UNL     1      30.846   4.113 -16.612  0.00  0.00    -0.263 NA
ENDBRANCH  26  27
ENDBRANCH  24  26
ENDBRANCH  11  22
TORSDOF 4
ENDMDL
MODEL 3
REMARK VINA RESULT:   -10.588      4.228     12.880
REMARK INTER + INTRA:         -13.571
REMARK INTER:                 -12.879
REMARK INTRA:                  -0.693
REMARK UNBOUND:                -0.508
REMARK  Name = CTX-1020733
REMARK  4 active torsions:
REMARK  status: ('A' for Active; 'I' for Inactive)
REMARK    1  A    between atoms: C_3  and  C_6
REMARK    2  A    between atoms: C_21  and  C_22
REMARK    3  A    between atoms: N_24  and  C_25
REMARK    4  A    between atoms: C_25  and  C_26
REMARK                            x       y       z     vdW  Elec       q    Type
REMARK                         _______ _______ _______ _____ _____    ______ ____
ROOT
ATOM      1  C   UNL     1      27.958   2.830 -22.007  0.00  0.00    +0.255 C 
ATOM      2  O   UNL     1      28.186   2.372 -20.857  0.00  0.00    -0.269 OA
ATOM      3  N   UNL     1      26.874   2.271 -23.028  0.00  0.00    -0.292 N 
ATOM      4  C   UNL     1      25.561   1.574 -24.234  0.00  0.00    +0.144 C 
ATOM      5  C   UNL     1      26.517   1.628 -21.809  0.00  0.00    +0.113 C 
ATOM      6  C   UNL     1      24.182   0.508 -23.611  0.00  0.00    -0.019 A 
ATOM      7  C   UNL     1      25.703   0.548 -22.025  0.00  0.00    +0.062 C 
ATOM      8  C   UNL     1      24.397   0.372 -22.303  0.00  0.00    -0.003 A 
ATOM      9  C   UNL     1      23.071  -0.530 -23.619  0.00  0.00    +0.026 A 
ATOM     10  S   UNL     1      23.406   0.035 -21.099  0.00  0.00    -0.088 S 
ATOM     11  C   UNL     1      22.786  -1.048 -22.264  0.00  0.00    +0.074 A 
ENDROOT
BRANCH   1  14
ATOM     12 CL   UNL     1      27.810   5.400 -24.196  0.00  0.00    -0.082 Cl
ATOM     13  C   UNL     1      29.005   4.989 -23.057  0.00  0.00    +0.068 A 
ATOM     14  C   UNL     1      28.926   3.895 -22.252  0.00  0.00    +0.093 A 
ATOM     15  C   UNL     1      30.192   5.788 -22.832  0.00  0.00    +0.008 A 
ATOM     16  S   UNL     1      30.368   3.788 -21.247  0.00  0.00    -0.082 S 
ATOM     17  C   UNL     1      31.007   5.224 -21.852  0.00  0.00    +0.021 A 
ATOM     18  C   UNL     1      30.636   7.006 -23.422  0.00  0.00    +0.010 A 
ATOM     19  C   UNL     1      32.209   5.804 -21.441  0.00  0.00    +0.016 A 
ATOM     20  C   UNL     1      31.839   7.599 -23.023  0.00  0.00    +0.001 A 
ATOM     21  C   UNL     1      32.605   6.991 -22.042  0.00  0.00    +0.001 A 
ENDBRANCH   1  14
BRANCH  11  22
ATOM     22  C   UNL     1      22.111  -2.096 -21.509  0.00  0.00    +0.251 C 
ATOM     23  O   UNL     1      21.389  -2.958 -21.994  0.00  0.00    -0.270 OA
ATOM     24  N   UNL     1      22.240  -1.967 -20.102  0.00  0.00    -0.307 N 
ATOM     25  H   UNL     1      22.809  -1.258 -19.723  0.00  0.00    +0.149 HD
BRANCH  24  26
ATOM     26  C   UNL     1      21.549  -2.861 -19.234  0.00  0.00    +0.140 C 
BRANCH  26  27
ATOM     27  C   UNL     1      20.422  -2.093 -18.651  0.00  0.00    -0.027 A 
ATOM     28  C   UNL     1      20.452  -0.699 -18.645  0.00  0.00    +0.025 A 
ATOM     29  C   UNL     1      19.373  -2.775 -18.051  0.00  0.00    +0.025 A 
ATOM     30  C   UNL     1      19.384  -0.041 -18.085  0.00  0.00    +0.111 A 
ATOM     31  C   UNL     1      18.326  -2.026 -17.574  0.00  0.00    +0.111 A 
ATOM     32  N   UNL     1      18.305  -0.672 -17.575  0.00  0.00    -0.263 NA
ENDBRANCH  26  27
ENDBRANCH  24  26
ENDBRANCH  11  22
TORSDOF 4
ENDMDL
MODEL 4
REMARK VINA RESULT:   -10.301      2.737      4.116
REMARK INTER + INTRA:         -13.218
REMARK INTER:                 -12.617
REMARK INTRA:                  -0.600
REMARK UNBOUND:                -0.508
REMARK  Name = CTX-1020733
REMARK  4 active torsions:
REMARK  status: ('A' for Active; 'I' for Inactive)
REMARK    1  A    between atoms: C_3  and  C_6
REMARK    2  A    between atoms: C_21  and  C_22
REMARK    3  A    between atoms: N_24  and  C_25
REMARK    4  A    between atoms: C_25  and  C_26
REMARK                            x       y       z     vdW  Elec       q    Type
REMARK                         _______ _______ _______ _____ _____    ______ ____
ROOT
ATOM      1  C   UNL     1      24.930   0.780 -21.092  0.00  0.00    +0.255 C 
ATOM      2  O   UNL     1      25.475   0.845 -19.959  0.00  0.00    -0.269 OA
ATOM      3  N   UNL     1      25.260   1.719 -22.333  0.00  0.00    -0.292 N 
ATOM      4  C   UNL     1      25.680   2.865 -23.806  0.00  0.00    +0.144 C 
ATOM      5  C   UNL     1      26.334   1.991 -21.440  0.00  0.00    +0.113 C 
ATOM      6  C   UNL     1      27.270   3.813 -23.840  0.00  0.00    -0.019 A 
ATOM      7  C   UNL     1      26.980   3.154 -21.763  0.00  0.00    +0.062 C 
ATOM      8  C   UNL     1      27.882   3.525 -22.692  0.00  0.00    -0.003 A 
ATOM      9  C   UNL     1      28.271   4.900 -24.195  0.00  0.00    +0.026 A 
ATOM     10  S   UNL     1      29.422   3.569 -22.275  0.00  0.00    -0.088 S 
ATOM     11  C   UNL     1      29.354   5.006 -23.195  0.00  0.00    +0.074 A 
ENDROOT
BRANCH   1  14
ATOM     12 CL   UNL     1      23.304  -0.808 -23.592  0.00  0.00    -0.082 Cl
ATOM     13  C   UNL     1      23.172  -0.983 -21.905  0.00  0.00    +0.068 A 
ATOM     14  C   UNL     1      23.892  -0.243 -21.018  0.00  0.00    +0.093 A 
ATOM     15  C   UNL     1      22.300  -1.953 -21.276  0.00  0.00    +0.008 A 
ATOM     16  S   UNL     1      23.444  -0.684 -19.373  0.00  0.00    -0.082 S 
ATOM     17  C   UNL     1      22.378  -1.881 -19.887  0.00  0.00    +0.021 A 
ATOM     18  C   UNL     1      21.422  -2.930 -21.827  0.00  0.00    +0.010 A 
ATOM     19  C   UNL     1      21.642  -2.718 -19.043  0.00  0.00    +0.016 A 
ATOM     20  C   UNL     1      20.677  -3.774 -20.996  0.00  0.00    +0.001 A 
ATOM     21  C   UNL     1      20.798  -3.655 -19.621  0.00  0.00    +0.001 A 
ENDBRANCH   1  14
BRANCH  11  22
ATOM     22  C   UNL     1      30.456   5.832 -22.717  0.00  0.00    +0.251 C 
ATOM     23  O   UNL     1      31.192   5.549 -21.780  0.00  0.00    -0.270 OA
ATOM     24  N   UNL     1      30.542   7.100 -23.348  0.00  0.00    -0.307 N 
ATOM     25  H   UNL     1      29.933   7.322 -24.090  0.00  0.00    +0.149 HD
BRANCH  24  26
ATOM     26  C   UNL     1      31.508   8.053 -22.914  0.00  0.00    +0.140 C 
BRANCH  26  27
ATOM     27  C   UNL     1      32.544   8.112 -23.973  0.00  0.00    -0.027 A 
ATOM     28  C   UNL     1      33.835   8.543 -23.668  0.00  0.00    +0.025 A 
ATOM     29  C   UNL     1      32.198   7.803 -25.280  0.00  0.00    +0.025 A 
ATOM     30  C   UNL     1      34.751   8.584 -24.691  0.00  0.00    +0.111 A 
ATOM     31  C   UNL     1      33.201   7.818 -26.218  0.00  0.00    +0.111 A 
ATOM     32  N   UNL     1      34.473   8.203 -25.956  0.00  0.00    -0.263 NA
ENDBRANCH  26  27
ENDBRANCH  24  26
ENDBRANCH  11  22
TORSDOF 4
ENDMDL
MODEL 5
REMARK VINA RESULT:    -9.813      7.057      9.603
REMARK INTER + INTRA:         -12.616
REMARK INTER:                 -12.063
REMARK INTRA:                  -0.553
REMARK UNBOUND:                -0.508
REMARK  Name = CTX-1020733
REMARK  4 active torsions:
REMARK  status: ('A' for Active; 'I' for Inactive)
REMARK    1  A    between atoms: C_3  and  C_6
REMARK    2  A    between atoms: C_21  and  C_22
REMARK    3  A    between atoms: N_24  and  C_25
REMARK    4  A    between atoms: C_25  and  C_26
REMARK                            x       y       z     vdW  Elec       q    Type
REMARK                         _______ _______ _______ _____ _____    ______ ____
ROOT
ATOM      1  C   UNL     1      21.054   1.174 -18.339  0.00  0.00    +0.255 C 
ATOM      2  O   UNL     1      20.961   2.429 -18.369  0.00  0.00    -0.269 OA
ATOM      3  N   UNL     1      21.860   0.281 -19.379  0.00  0.00    -0.292 N 
ATOM      4  C   UNL     1      22.840  -0.765 -20.648  0.00  0.00    +0.144 C 
ATOM      5  C   UNL     1      22.324   1.595 -19.670  0.00  0.00    +0.113 C 
ATOM      6  C   UNL     1      24.141   0.015 -21.708  0.00  0.00    -0.019 A 
ATOM      7  C   UNL     1      22.929   1.659 -20.896  0.00  0.00    +0.062 C 
ATOM      8  C   UNL     1      24.132   1.309 -21.391  0.00  0.00    -0.003 A 
ATOM      9  C   UNL     1      25.077   0.226 -22.887  0.00  0.00    +0.026 A 
ATOM     10  S   UNL     1      25.255   2.436 -21.520  0.00  0.00    -0.088 S 
ATOM     11  C   UNL     1      25.511   1.634 -23.005  0.00  0.00    +0.074 A 
ENDROOT
BRANCH   1  14
ATOM     12 CL   UNL     1      17.959  -0.178 -18.430  0.00  0.00    -0.082 Cl
ATOM     13  C   UNL     1      18.992   0.122 -17.112  0.00  0.00    +0.068 A 
ATOM     14  C   UNL     1      20.218   0.701 -17.241  0.00  0.00    +0.093 A 
ATOM     15  C   UNL     1      18.662  -0.239 -15.749  0.00  0.00    +0.008 A 
ATOM     16  S   UNL     1      20.960   0.882 -15.654  0.00  0.00    -0.082 S 
ATOM     17  C   UNL     1      19.678   0.126 -14.867  0.00  0.00    +0.021 A 
ATOM     18  C   UNL     1      17.521  -0.884 -15.193  0.00  0.00    +0.010 A 
ATOM     19  C   UNL     1      19.611  -0.120 -13.493  0.00  0.00    +0.016 A 
ATOM     20  C   UNL     1      17.438  -1.135 -13.819  0.00  0.00    +0.001 A 
ATOM     21  C   UNL     1      18.481  -0.750 -12.993  0.00  0.00    +0.001 A 
ENDBRANCH   1  14
BRANCH  11  22
ATOM     22  C   UNL     1      26.150   2.613 -23.876  0.00  0.00    +0.251 C 
ATOM     23  O   UNL     1      27.132   3.282 -23.580  0.00  0.00    -0.270 OA
ATOM     24  N   UNL     1      25.453   2.848 -25.090  0.00  0.00    -0.307 N 
ATOM     25  H   UNL     1      24.654   2.315 -25.308  0.00  0.00    +0.149 HD
BRANCH  24  26
ATOM     26  C   UNL     1      25.905   3.852 -25.994  0.00  0.00    +0.140 C 
BRANCH  26  27
ATOM     27  C   UNL     1      25.985   3.210 -27.328  0.00  0.00    -0.027 A 
ATOM     28  C   UNL     1      25.250   3.720 -28.397  0.00  0.00    +0.025 A 
ATOM     29  C   UNL     1      26.741   2.056 -27.482  0.00  0.00    +0.025 A 
ATOM     30  C   UNL     1      25.358   3.079 -29.608  0.00  0.00    +0.111 A 
ATOM     31  C   UNL     1      26.830   1.527 -28.746  0.00  0.00    +0.111 A 
ATOM     32  N   UNL     1      26.154   2.010 -29.816  0.00  0.00    -0.263 NA
ENDBRANCH  26  27
ENDBRANCH  24  26
ENDBRANCH  11  22
TORSDOF 4
ENDMDL
