MODEL 1
REMARK VINA RESULT:   -10.547      0.000      0.000
REMARK INTER + INTRA:         -14.764
REMARK INTER:                 -13.630
REMARK INTRA:                  -1.134
REMARK UNBOUND:                -1.134
REMARK  Name = CTX-1020732
REMARK  6 active torsions:
REMARK  status: ('A' for Active; 'I' for Inactive)
REMARK    1  A    between atoms: C_3  and  C_6
REMARK    2  A    between atoms: C_21  and  C_22
REMARK    3  A    between atoms: N_24  and  C_25
REMARK    4  A    between atoms: C_25  and  C_26
REMARK    5  A    between atoms: C_31  and  N_32
REMARK    6  A    between atoms: N_37  and  C_38
REMARK                            x       y       z     vdW  Elec       q    Type
REMARK                         _______ _______ _______ _____ _____    ______ ____
ROOT
ATOM      1  C   UNL     1      23.973  -0.099 -20.935  0.00  0.00    +0.255 C 
ATOM      2  O   UNL     1      24.628  -0.926 -20.305  0.00  0.00    -0.269 OA
ATOM      3  N   UNL     1      22.640   0.273 -20.509  0.00  0.00    -0.292 N 
ATOM      4  C   UNL     1      21.669  -0.554 -19.573  0.00  0.00    +0.144 C 
ATOM      5  C   UNL     1      22.617   1.708 -20.342  0.00  0.00    +0.113 C 
ATOM      6  C   UNL     1      20.690   0.341 -18.716  0.00  0.00    -0.019 A 
ATOM      7  C   UNL     1      21.272   2.326 -20.144  0.00  0.00    +0.062 C 
ATOM      8  C   UNL     1      20.485   1.624 -19.151  0.00  0.00    -0.003 A 
ATOM      9  C   UNL     1      19.935   0.249 -17.445  0.00  0.00    +0.026 A 
ATOM     10  S   UNL     1      19.226   2.484 -18.395  0.00  0.00    -0.088 S 
ATOM     11  C   UNL     1      19.496   1.516 -17.024  0.00  0.00    +0.074 A 
ENDROOT
BRANCH   1  14
ATOM     12 CL   UNL     1      23.206  -0.489 -24.274  0.00  0.00    -0.082 Cl
ATOM     13  C   UNL     1      24.293   0.596 -23.496  0.00  0.00    +0.069 A 
ATOM     14  C   UNL     1      24.561   0.644 -22.123  0.00  0.00    +0.095 A 
ATOM     15  C   UNL     1      25.048   1.574 -24.289  0.00  0.00    +0.027 A 
ATOM     16  S   UNL     1      25.801   1.828 -21.841  0.00  0.00    -0.063 S 
ATOM     17  C   UNL     1      25.922   2.285 -23.470  0.00  0.00    +0.110 A 
ATOM     18  C   UNL     1      25.114   1.883 -25.691  0.00  0.00    +0.013 A 
ATOM     19  N   UNL     1      26.811   3.199 -23.876  0.00  0.00    -0.248 NA
ATOM     20  C   UNL     1      25.976   2.876 -26.132  0.00  0.00    +0.020 A 
ATOM     21  C   UNL     1      26.806   3.475 -25.212  0.00  0.00    +0.112 A 
ENDBRANCH   1  14
BRANCH  11  22
ATOM     22  C   UNL     1      19.347   2.207 -15.746  0.00  0.00    +0.251 C 
ATOM     23  O   UNL     1      18.476   3.033 -15.488  0.00  0.00    -0.270 OA
ATOM     24  N   UNL     1      20.364   1.977 -14.824  0.00  0.00    -0.307 N 
ATOM     25  H   UNL     1      20.344   2.520 -14.002  0.00  0.00    +0.149 HD
BRANCH  24  26
ATOM     26  C   UNL     1      21.453   1.022 -14.943  0.00  0.00    +0.139 C 
BRANCH  26  27
ATOM     27  C   UNL     1      22.734   1.709 -15.321  0.00  0.00    -0.030 A 
ATOM     28  C   UNL     1      23.062   1.867 -16.667  0.00  0.00    +0.007 A 
ATOM     29  C   UNL     1      23.641   2.152 -14.361  0.00  0.00    +0.007 A 
ATOM     30  C   UNL     1      24.266   2.471 -17.045  0.00  0.00    +0.023 A 
ATOM     31  C   UNL     1      24.854   2.737 -14.754  0.00  0.00    +0.023 A 
ATOM     32  C   UNL     1      25.201   2.932 -16.104  0.00  0.00    +0.030 A 
BRANCH  32  33
ATOM     33  N   UNL     1      26.438   3.467 -16.469  0.00  0.00    -0.333 N 
ATOM     34  C   UNL     1      26.963   4.660 -15.763  0.00  0.00    +0.086 C 
ATOM     35  C   UNL     1      27.522   2.537 -16.860  0.00  0.00    +0.086 C 
ATOM     36  C   UNL     1      28.067   5.348 -16.600  0.00  0.00    -0.060 C 
ATOM     37  C   UNL     1      28.594   3.279 -17.689  0.00  0.00    -0.060 C 
ATOM     38  N   UNL     1      29.166   4.428 -16.958  0.00  0.00    +0.380 N 
ATOM     39  C   UNL     1      30.167   5.109 -17.773  0.00  0.00    -0.096 C 
ATOM     40  H   UNL     1      29.632   4.102 -16.112  0.00  0.00    -0.082 HD
ENDBRANCH  32  33
ENDBRANCH  26  27
ENDBRANCH  24  26
ENDBRANCH  11  22
TORSDOF 5
ENDMDL
MODEL 2
REMARK VINA RESULT:    -9.952      3.445      7.567
REMARK INTER + INTRA:         -13.996
REMARK INTER:                 -12.983
REMARK INTRA:                  -1.013
REMARK UNBOUND:                -1.134
REMARK  Name = CTX-1020732
REMARK  6 active torsions:
REMARK  status: ('A' for Active; 'I' for Inactive)
REMARK    1  A    between atoms: C_3  and  C_6
REMARK    2  A    between atoms: C_21  and  C_22
REMARK    3  A    between atoms: N_24  and  C_25
REMARK    4  A    between atoms: C_25  and  C_26
REMARK    5  A    between atoms: C_31  and  N_32
REMARK    6  A    between atoms: N_37  and  C_38
REMARK                            x       y       z     vdW  Elec       q    Type
REMARK                         _______ _______ _______ _____ _____    ______ ____
ROOT
ATOM      1  C   UNL     1      19.350   1.701 -18.336  0.00  0.00    +0.255 C 
ATOM      2  O   UNL     1      19.277   2.360 -19.371  0.00  0.00    -0.269 OA
ATOM      3  N   UNL     1      19.336   0.253 -18.376  0.00  0.00    -0.292 N 
ATOM      4  C   UNL     1      18.787  -0.666 -19.539  0.00  0.00    +0.144 C 
ATOM      5  C   UNL     1      20.522  -0.216 -17.698  0.00  0.00    +0.113 C 
ATOM      6  C   UNL     1      19.529  -2.055 -19.664  0.00  0.00    -0.019 A 
ATOM      7  C   UNL     1      20.580  -1.680 -17.410  0.00  0.00    +0.062 C 
ATOM      8  C   UNL     1      20.228  -2.482 -18.564  0.00  0.00    -0.003 A 
ATOM      9  C   UNL     1      19.802  -3.075 -20.702  0.00  0.00    +0.026 A 
ATOM     10  S   UNL     1      20.785  -4.089 -18.603  0.00  0.00    -0.088 S 
ATOM     11  C   UNL     1      20.824  -3.950 -20.297  0.00  0.00    +0.074 A 
ENDROOT
BRANCH   1  14
ATOM     12 CL   UNL     1      22.202   3.222 -17.137  0.00  0.00    -0.082 Cl
ATOM     13  C   UNL     1      20.647   3.039 -16.422  0.00  0.00    +0.069 A 
ATOM     14  C   UNL     1      19.560   2.362 -16.984  0.00  0.00    +0.095 A 
ATOM     15  C   UNL     1      20.378   3.610 -15.096  0.00  0.00    +0.027 A 
ATOM     16  S   UNL     1      18.254   2.360 -15.838  0.00  0.00    -0.063 S 
ATOM     17  C   UNL     1      19.092   3.271 -14.679  0.00  0.00    +0.110 A 
ATOM     18  C   UNL     1      21.164   4.356 -14.152  0.00  0.00    +0.013 A 
ATOM     19  N   UNL     1      18.550   3.561 -13.491  0.00  0.00    -0.248 NA
ATOM     20  C   UNL     1      20.603   4.732 -12.941  0.00  0.00    +0.020 A 
ATOM     21  C   UNL     1      19.329   4.299 -12.649  0.00  0.00    +0.112 A 
ENDBRANCH   1  14
BRANCH  11  22
ATOM     22  C   UNL     1      21.941  -4.634 -20.944  0.00  0.00    +0.251 C 
ATOM     23  O   UNL     1      22.249  -5.809 -20.761  0.00  0.00    -0.270 OA
ATOM     24  N   UNL     1      22.766  -3.825 -21.719  0.00  0.00    -0.307 N 
ATOM     25  H   UNL     1      23.586  -4.241 -22.069  0.00  0.00    +0.149 HD
BRANCH  24  26
ATOM     26  C   UNL     1      22.546  -2.431 -22.066  0.00  0.00    +0.139 C 
BRANCH  26  27
ATOM     27  C   UNL     1      23.410  -1.525 -21.237  0.00  0.00    -0.030 A 
ATOM     28  C   UNL     1      23.071  -1.274 -19.908  0.00  0.00    +0.007 A 
ATOM     29  C   UNL     1      24.523  -0.880 -21.770  0.00  0.00    +0.007 A 
ATOM     30  C   UNL     1      23.839  -0.406 -19.124  0.00  0.00    +0.023 A 
ATOM     31  C   UNL     1      25.272   0.004 -20.979  0.00  0.00    +0.023 A 
ATOM     32  C   UNL     1      24.969   0.258 -19.629  0.00  0.00    +0.030 A 
BRANCH  32  33
ATOM     33  N   UNL     1      25.698   1.185 -18.879  0.00  0.00    -0.333 N 
ATOM     34  C   UNL     1      26.837   1.901 -19.500  0.00  0.00    +0.086 C 
ATOM     35  C   UNL     1      24.972   2.037 -17.910  0.00  0.00    +0.086 C 
ATOM     36  C   UNL     1      27.766   2.494 -18.413  0.00  0.00    -0.060 C 
ATOM     37  C   UNL     1      25.949   2.601 -16.854  0.00  0.00    -0.060 C 
ATOM     38  N   UNL     1      27.047   3.374 -17.469  0.00  0.00    +0.380 N 
ATOM     39  C   UNL     1      27.954   3.884 -16.445  0.00  0.00    -0.096 C 
ATOM     40  H   UNL     1      26.668   4.178 -17.968  0.00  0.00    -0.082 HD
ENDBRANCH  32  33
ENDBRANCH  26  27
ENDBRANCH  24  26
ENDBRANCH  11  22
TORSDOF 5
ENDMDL
MODEL 3
REMARK VINA RESULT:    -9.886      3.695      8.360
REMARK INTER + INTRA:         -13.909
REMARK INTER:                 -13.639
REMARK INTRA:                  -0.270
REMARK UNBOUND:                -1.134
REMARK  Name = CTX-1020732
REMARK  6 active torsions:
REMARK  status: ('A' for Active; 'I' for Inactive)
REMARK    1  A    between atoms: C_3  and  C_6
REMARK    2  A    between atoms: C_21  and  C_22
REMARK    3  A    between atoms: N_24  and  C_25
REMARK    4  A    between atoms: C_25  and  C_26
REMARK    5  A    between atoms: C_31  and  N_32
REMARK    6  A    between atoms: N_37  and  C_38
REMARK                            x       y       z     vdW  Elec       q    Type
REMARK                         _______ _______ _______ _____ _____    ______ ____
ROOT
ATOM      1  C   UNL     1      21.727   2.006 -15.454  0.00  0.00    +0.255 C 
ATOM      2  O   UNL     1      21.680   2.181 -14.238  0.00  0.00    -0.269 OA
ATOM      3  N   UNL     1      22.860   2.469 -16.227  0.00  0.00    -0.292 N 
ATOM      4  C   UNL     1      23.898   3.591 -15.825  0.00  0.00    +0.144 C 
ATOM      5  C   UNL     1      23.393   1.335 -16.947  0.00  0.00    +0.113 C 
ATOM      6  C   UNL     1      25.341   3.377 -16.431  0.00  0.00    -0.019 A 
ATOM      7  C   UNL     1      24.412   1.640 -17.994  0.00  0.00    +0.062 C 
ATOM      8  C   UNL     1      25.437   2.545 -17.517  0.00  0.00    -0.003 A 
ATOM      9  C   UNL     1      26.739   3.749 -16.117  0.00  0.00    +0.026 A 
ATOM     10  S   UNL     1      26.932   2.540 -18.331  0.00  0.00    -0.088 S 
ATOM     11  C   UNL     1      27.649   2.968 -16.850  0.00  0.00    +0.074 A 
ENDROOT
BRANCH   1  14
ATOM     12 CL   UNL     1      20.275   2.706 -18.502  0.00  0.00    -0.082 Cl
ATOM     13  C   UNL     1      20.039   1.381 -17.429  0.00  0.00    +0.069 A 
ATOM     14  C   UNL     1      20.657   1.212 -16.185  0.00  0.00    +0.095 A 
ATOM     15  C   UNL     1      19.107   0.303 -17.787  0.00  0.00    +0.027 A 
ATOM     16  S   UNL     1      20.016  -0.219 -15.436  0.00  0.00    -0.063 S 
ATOM     17  C   UNL     1      19.010  -0.614 -16.743  0.00  0.00    +0.110 A 
ATOM     18  C   UNL     1      18.259   0.053 -18.919  0.00  0.00    +0.013 A 
ATOM     19  N   UNL     1      18.196  -1.675 -16.703  0.00  0.00    -0.248 NA
ATOM     20  C   UNL     1      17.456  -1.077 -18.935  0.00  0.00    +0.020 A 
ATOM     21  C   UNL     1      17.438  -1.881 -17.818  0.00  0.00    +0.112 A 
ENDBRANCH   1  14
BRANCH  11  22
ATOM     22  C   UNL     1      28.952   2.358 -16.600  0.00  0.00    +0.251 C 
ATOM     23  O   UNL     1      29.165   1.150 -16.539  0.00  0.00    -0.270 OA
ATOM     24  N   UNL     1      29.975   3.248 -16.286  0.00  0.00    -0.307 N 
ATOM     25  H   UNL     1      30.831   2.852 -16.002  0.00  0.00    +0.149 HD
BRANCH  24  26
ATOM     26  C   UNL     1      29.916   4.699 -16.332  0.00  0.00    +0.139 C 
BRANCH  26  27
ATOM     27  C   UNL     1      30.119   5.203 -17.732  0.00  0.00    -0.030 A 
ATOM     28  C   UNL     1      30.155   4.300 -18.793  0.00  0.00    +0.007 A 
ATOM     29  C   UNL     1      30.327   6.553 -18.004  0.00  0.00    +0.007 A 
ATOM     30  C   UNL     1      30.378   4.740 -20.103  0.00  0.00    +0.023 A 
ATOM     31  C   UNL     1      30.571   6.979 -19.318  0.00  0.00    +0.023 A 
ATOM     32  C   UNL     1      30.588   6.094 -20.412  0.00  0.00    +0.030 A 
BRANCH  32  33
ATOM     33  N   UNL     1      30.887   6.536 -21.703  0.00  0.00    -0.333 N 
ATOM     34  C   UNL     1      29.910   6.331 -22.797  0.00  0.00    +0.086 C 
ATOM     35  C   UNL     1      31.633   7.806 -21.859  0.00  0.00    +0.086 C 
ATOM     36  C   UNL     1      30.602   6.451 -24.177  0.00  0.00    -0.060 C 
ATOM     37  C   UNL     1      32.298   7.870 -23.253  0.00  0.00    -0.060 C 
ATOM     38  N   UNL     1      31.314   7.735 -24.346  0.00  0.00    +0.380 N 
ATOM     39  C   UNL     1      31.976   7.792 -25.645  0.00  0.00    -0.096 C 
ATOM     40  H   UNL     1      30.648   8.506 -24.309  0.00  0.00    -0.082 HD
ENDBRANCH  32  33
ENDBRANCH  26  27
ENDBRANCH  24  26
ENDBRANCH  11  22
TORSDOF 5
ENDMDL
MODEL 4
REMARK VINA RESULT:    -9.792      4.459      8.602
REMARK INTER + INTRA:         -13.789
REMARK INTER:                 -13.701
REMARK INTRA:                  -0.089
REMARK UNBOUND:                -1.134
REMARK  Name = CTX-1020732
REMARK  6 active torsions:
REMARK  status: ('A' for Active; 'I' for Inactive)
REMARK    1  A    between atoms: C_3  and  C_6
REMARK    2  A    between atoms: C_21  and  C_22
REMARK    3  A    between atoms: N_24  and  C_25
REMARK    4  A    between atoms: C_25  and  C_26
REMARK    5  A    between atoms: C_31  and  N_32
REMARK    6  A    between atoms: N_37  and  C_38
REMARK                            x       y       z     vdW  Elec       q    Type
REMARK                         _______ _______ _______ _____ _____    ______ ____
ROOT
ATOM      1  C   UNL     1      23.568   0.642 -19.756  0.00  0.00    +0.255 C 
ATOM      2  O   UNL     1      23.929   0.628 -20.931  0.00  0.00    -0.269 OA
ATOM      3  N   UNL     1      24.484   1.022 -18.702  0.00  0.00    -0.292 N 
ATOM      4  C   UNL     1      26.065   1.011 -18.758  0.00  0.00    +0.144 C 
ATOM      5  C   UNL     1      23.880   2.108 -17.966  0.00  0.00    +0.113 C 
ATOM      6  C   UNL     1      26.746   2.104 -17.844  0.00  0.00    -0.019 A 
ATOM      7  C   UNL     1      24.548   2.487 -16.685  0.00  0.00    +0.062 C 
ATOM      8  C   UNL     1      25.982   2.628 -16.834  0.00  0.00    -0.003 A 
ATOM      9  C   UNL     1      28.017   2.862 -17.787  0.00  0.00    +0.026 A 
ATOM     10  S   UNL     1      26.800   3.587 -15.690  0.00  0.00    -0.088 S 
ATOM     11  C   UNL     1      27.911   3.964 -16.920  0.00  0.00    +0.074 A 
ENDROOT
BRANCH   1  14
ATOM     12 CL   UNL     1      20.907   2.835 -19.740  0.00  0.00    -0.082 Cl
ATOM     13  C   UNL     1      20.975   1.156 -19.364  0.00  0.00    +0.069 A 
ATOM     14  C   UNL     1      22.126   0.361 -19.364  0.00  0.00    +0.095 A 
ATOM     15  C   UNL     1      19.750   0.438 -18.987  0.00  0.00    +0.027 A 
ATOM     16  S   UNL     1      21.702  -1.232 -18.815  0.00  0.00    -0.063 S 
ATOM     17  C   UNL     1      20.052  -0.879 -18.646  0.00  0.00    +0.110 A 
ATOM     18  C   UNL     1      18.375   0.823 -18.838  0.00  0.00    +0.013 A 
ATOM     19  N   UNL     1      19.186  -1.788 -18.184  0.00  0.00    -0.248 NA
ATOM     20  C   UNL     1      17.442  -0.118 -18.429  0.00  0.00    +0.020 A 
ATOM     21  C   UNL     1      17.888  -1.377 -18.095  0.00  0.00    +0.112 A 
ENDBRANCH   1  14
BRANCH  11  22
ATOM     22  C   UNL     1      28.408   5.337 -16.899  0.00  0.00    +0.251 C 
ATOM     23  O   UNL     1      27.913   6.256 -16.253  0.00  0.00    -0.270 OA
ATOM     24  N   UNL     1      29.443   5.609 -17.789  0.00  0.00    -0.307 N 
ATOM     25  H   UNL     1      29.714   6.552 -17.873  0.00  0.00    +0.149 HD
BRANCH  24  26
ATOM     26  C   UNL     1      30.165   4.651 -18.609  0.00  0.00    +0.139 C 
BRANCH  26  27
ATOM     27  C   UNL     1      30.729   5.307 -19.836  0.00  0.00    -0.030 A 
ATOM     28  C   UNL     1      30.280   4.917 -21.097  0.00  0.00    +0.007 A 
ATOM     29  C   UNL     1      31.735   6.268 -19.759  0.00  0.00    +0.007 A 
ATOM     30  C   UNL     1      30.815   5.488 -22.257  0.00  0.00    +0.023 A 
ATOM     31  C   UNL     1      32.277   6.817 -20.931  0.00  0.00    +0.023 A 
ATOM     32  C   UNL     1      31.826   6.460 -22.216  0.00  0.00    +0.030 A 
BRANCH  32  33
ATOM     33  N   UNL     1      32.421   6.981 -23.367  0.00  0.00    -0.333 N 
ATOM     34  C   UNL     1      31.577   7.592 -24.421  0.00  0.00    +0.086 C 
ATOM     35  C   UNL     1      33.727   7.668 -23.239  0.00  0.00    +0.086 C 
ATOM     36  C   UNL     1      32.346   7.667 -25.762  0.00  0.00    -0.060 C 
ATOM     37  C   UNL     1      34.445   7.715 -24.606  0.00  0.00    -0.060 C 
ATOM     38  N   UNL     1      33.631   8.386 -25.640  0.00  0.00    +0.380 N 
ATOM     39  C   UNL     1      34.336   8.404 -26.918  0.00  0.00    -0.096 C 
ATOM     40  H   UNL     1      33.461   9.354 -25.372  0.00  0.00    -0.082 HD
ENDBRANCH  32  33
ENDBRANCH  26  27
ENDBRANCH  24  26
ENDBRANCH  11  22
TORSDOF 5
ENDMDL
MODEL 5
REMARK VINA RESULT:    -9.464      1.710      2.120
REMARK INTER + INTRA:         -13.364
REMARK INTER:                 -13.541
REMARK INTRA:                   0.176
REMARK UNBOUND:                -1.134
REMARK  Name = CTX-1020732
REMARK  6 active torsions:
REMARK  status: ('A' for Active; 'I' for Inactive)
REMARK    1  A    between atoms: C_3  and  C_6
REMARK    2  A    between atoms: C_21  and  C_22
REMARK    3  A    between atoms: N_24  and  C_25
REMARK    4  A    between atoms: C_25  and  C_26
REMARK    5  A    between atoms: C_31  and  N_32
REMARK    6  A    between atoms: N_37  and  C_38
REMARK                            x       y       z     vdW  Elec       q    Type
REMARK                         _______ _______ _______ _____ _____    ______ ____
ROOT
ATOM      1  C   UNL     1      23.948  -0.379 -21.680  0.00  0.00    +0.255 C 
ATOM      2  O   UNL     1      24.553  -1.407 -21.384  0.00  0.00    -0.269 OA
ATOM      3  N   UNL     1      22.703  -0.036 -21.025  0.00  0.00    -0.292 N 
ATOM      4  C   UNL     1      21.720  -1.014 -20.265  0.00  0.00    +0.144 C 
ATOM      5  C   UNL     1      22.855   1.284 -20.457  0.00  0.00    +0.113 C 
ATOM      6  C   UNL     1      20.917  -0.330 -19.089  0.00  0.00    -0.019 A 
ATOM      7  C   UNL     1      21.608   1.929 -19.950  0.00  0.00    +0.062 C 
ATOM      8  C   UNL     1      20.826   1.037 -19.118  0.00  0.00    -0.003 A 
ATOM      9  C   UNL     1      20.258  -0.725 -17.823  0.00  0.00    +0.026 A 
ATOM     10  S   UNL     1      19.735   1.742 -18.019  0.00  0.00    -0.088 S 
ATOM     11  C   UNL     1      19.999   0.396 -17.016  0.00  0.00    +0.074 A 
ENDROOT
BRANCH   1  14
ATOM     12 CL   UNL     1      25.832   2.425 -20.993  0.00  0.00    -0.082 Cl
ATOM     13  C   UNL     1      25.327   1.758 -22.497  0.00  0.00    +0.069 A 
ATOM     14  C   UNL     1      24.523   0.626 -22.664  0.00  0.00    +0.095 A 
ATOM     15  C   UNL     1      25.733   2.397 -23.756  0.00  0.00    +0.027 A 
ATOM     16  S   UNL     1      24.203   0.417 -24.359  0.00  0.00    -0.063 S 
ATOM     17  C   UNL     1      25.145   1.743 -24.837  0.00  0.00    +0.110 A 
ATOM     18  C   UNL     1      26.522   3.553 -24.079  0.00  0.00    +0.013 A 
ATOM     19  N   UNL     1      25.240   2.107 -26.121  0.00  0.00    -0.248 NA
ATOM     20  C   UNL     1      26.696   3.912 -25.407  0.00  0.00    +0.020 A 
ATOM     21  C   UNL     1      26.028   3.192 -26.371  0.00  0.00    +0.112 A 
ENDBRANCH   1  14
BRANCH  11  22
ATOM     22  C   UNL     1      20.028   0.692 -15.586  0.00  0.00    +0.251 C 
ATOM     23  O   UNL     1      19.528  -0.009 -14.711  0.00  0.00    -0.270 OA
ATOM     24  N   UNL     1      20.559   1.932 -15.246  0.00  0.00    -0.307 N 
ATOM     25  H   UNL     1      20.484   2.199 -14.302  0.00  0.00    +0.149 HD
BRANCH  24  26
ATOM     26  C   UNL     1      21.214   2.877 -16.136  0.00  0.00    +0.139 C 
BRANCH  26  27
ATOM     27  C   UNL     1      22.708   2.744 -16.060  0.00  0.00    -0.030 A 
ATOM     28  C   UNL     1      23.354   2.913 -14.836  0.00  0.00    +0.007 A 
ATOM     29  C   UNL     1      23.484   2.506 -17.192  0.00  0.00    +0.007 A 
ATOM     30  C   UNL     1      24.749   2.830 -14.744  0.00  0.00    +0.023 A 
ATOM     31  C   UNL     1      24.881   2.445 -17.089  0.00  0.00    +0.023 A 
ATOM     32  C   UNL     1      25.560   2.587 -15.864  0.00  0.00    +0.030 A 
BRANCH  32  33
ATOM     33  N   UNL     1      26.955   2.578 -15.798  0.00  0.00    -0.333 N 
ATOM     34  C   UNL     1      27.673   1.303 -15.570  0.00  0.00    +0.086 C 
ATOM     35  C   UNL     1      27.710   3.484 -16.693  0.00  0.00    +0.086 C 
ATOM     36  C   UNL     1      29.114   1.569 -15.071  0.00  0.00    -0.060 C 
ATOM     37  C   UNL     1      29.138   3.710 -16.148  0.00  0.00    -0.060 C 
ATOM     38  N   UNL     1      29.879   2.443 -15.985  0.00  0.00    +0.380 N 
ATOM     39  C   UNL     1      31.218   2.693 -15.461  0.00  0.00    -0.096 C 
ATOM     40  H   UNL     1      29.986   1.986 -16.890  0.00  0.00    -0.082 HD
ENDBRANCH  32  33
ENDBRANCH  26  27
ENDBRANCH  24  26
ENDBRANCH  11  22
TORSDOF 5
ENDMDL
