MODEL 1
REMARK VINA RESULT:   -10.953      0.000      0.000
REMARK INTER + INTRA:         -14.178
REMARK INTER:                 -13.514
REMARK INTRA:                  -0.664
REMARK UNBOUND:                -0.664
REMARK  Name = CTX-1020671
REMARK  4 active torsions:
REMARK  status: ('A' for Active; 'I' for Inactive)
REMARK    1  A    between atoms: C_2  and  C_4
REMARK    2  A    between atoms: N_9  and  C_12
REMARK    3  A    between atoms: C_12  and  C_14
REMARK    4  A    between atoms: C_15  and  C_19
REMARK                            x       y       z     vdW  Elec       q    Type
REMARK                         _______ _______ _______ _____ _____    ______ ____
ROOT
ATOM      1  S   UNL     1      23.063  -0.928 -22.986  0.00  0.00    -0.088 S 
ATOM      2  C   UNL     1      23.787   0.363 -22.118  0.00  0.00    +0.074 A 
ATOM      3  C   UNL     1      22.256  -1.493 -21.599  0.00  0.00    -0.003 A 
ATOM      4  C   UNL     1      23.398   0.348 -20.788  0.00  0.00    +0.026 A 
ATOM      5  C   UNL     1      22.529  -0.736 -20.473  0.00  0.00    -0.019 A 
ATOM      6  C   UNL     1      21.313  -2.665 -21.612  0.00  0.00    +0.062 C 
ATOM      7  C   UNL     1      21.966  -1.069 -19.121  0.00  0.00    +0.144 C 
ATOM      8  C   UNL     1      20.977  -3.072 -20.161  0.00  0.00    +0.113 C 
ATOM      9  N   UNL     1      20.758  -1.878 -19.325  0.00  0.00    -0.293 N 
ATOM     10  C   UNL     1      19.473  -1.591 -18.869  0.00  0.00    +0.251 C 
ATOM     11  O   UNL     1      18.563  -2.412 -18.960  0.00  0.00    -0.270 OA
ENDROOT
BRANCH  10  12
ATOM     12  C   UNL     1      19.207  -0.296 -18.257  0.00  0.00    +0.083 A 
ATOM     13  C   UNL     1      19.157  -0.021 -16.903  0.00  0.00    +0.097 A 
ATOM     14  C   UNL     1      18.831   0.939 -18.833  0.00  0.00    +0.148 A 
ATOM     15  N   UNL     1      18.906   1.325 -16.752  0.00  0.00    -0.236 N 
ATOM     16  C   UNL     1      19.316  -0.811 -15.712  0.00  0.00    +0.139 A 
ATOM     17  N   UNL     1      18.717   1.929 -17.946  0.00  0.00    -0.174 NA
ATOM     18  C   UNL     1      18.863   1.878 -15.486  0.00  0.00    +0.132 A 
ATOM     19  N   UNL     1      19.259  -0.283 -14.518  0.00  0.00    -0.260 NA
ATOM     20  C   UNL     1      19.036   1.077 -14.424  0.00  0.00    +0.130 A 
ENDBRANCH  10  12
BRANCH   2  21
ATOM     21  C   UNL     1      24.694   1.332 -22.721  0.00  0.00    +0.251 C 
ATOM     22  O   UNL     1      24.938   2.412 -22.186  0.00  0.00    -0.270 OA
ATOM     23  N   UNL     1      25.281   0.977 -23.917  0.00  0.00    -0.307 N 
ATOM     24  H   UNL     1      25.032   0.121 -24.335  0.00  0.00    +0.149 HD
BRANCH  23  25
ATOM     25  C   UNL     1      26.252   1.822 -24.575  0.00  0.00    +0.139 C 
BRANCH  25  26
ATOM     26  C   UNL     1      26.282   1.608 -26.067  0.00  0.00    -0.030 A 
ATOM     27  C   UNL     1      25.961   2.654 -26.944  0.00  0.00    +0.005 A 
ATOM     28  C   UNL     1      26.709   0.384 -26.604  0.00  0.00    +0.005 A 
ATOM     29  C   UNL     1      26.063   2.479 -28.326  0.00  0.00    +0.000 A 
ATOM     30  C   UNL     1      26.812   0.212 -27.986  0.00  0.00    +0.000 A 
ATOM     31  C   UNL     1      26.492   1.261 -28.847  0.00  0.00    +0.000 A 
ENDBRANCH  25  26
ENDBRANCH  23  25
ENDBRANCH   2  21
TORSDOF 4
ENDMDL
MODEL 2
REMARK VINA RESULT:   -10.662      6.815     10.465
REMARK INTER + INTRA:         -13.820
REMARK INTER:                 -13.792
REMARK INTRA:                  -0.028
REMARK UNBOUND:                -0.664
REMARK  Name = CTX-1020671
REMARK  4 active torsions:
REMARK  status: ('A' for Active; 'I' for Inactive)
REMARK    1  A    between atoms: C_2  and  C_4
REMARK    2  A    between atoms: N_9  and  C_12
REMARK    3  A    between atoms: C_12  and  C_14
REMARK    4  A    between atoms: C_15  and  C_19
REMARK                            x       y       z     vdW  Elec       q    Type
REMARK                         _______ _______ _______ _____ _____    ______ ____
ROOT
ATOM      1  S   UNL     1      30.184   3.778 -21.605  0.00  0.00    -0.088 S 
ATOM      2  C   UNL     1      30.125   5.272 -22.445  0.00  0.00    +0.074 A 
ATOM      3  C   UNL     1      28.579   3.403 -22.028  0.00  0.00    -0.003 A 
ATOM      4  C   UNL     1      28.887   5.459 -23.040  0.00  0.00    +0.026 A 
ATOM      5  C   UNL     1      27.978   4.392 -22.785  0.00  0.00    -0.019 A 
ATOM      6  C   UNL     1      27.907   2.110 -21.651  0.00  0.00    +0.062 C 
ATOM      7  C   UNL     1      26.549   4.304 -23.239  0.00  0.00    +0.144 C 
ATOM      8  C   UNL     1      26.395   2.212 -21.949  0.00  0.00    +0.113 C 
ATOM      9  N   UNL     1      26.164   2.888 -23.237  0.00  0.00    -0.293 N 
ATOM     10  C   UNL     1      25.682   2.151 -24.318  0.00  0.00    +0.251 C 
ATOM     11  O   UNL     1      25.241   1.014 -24.170  0.00  0.00    -0.270 OA
ENDROOT
BRANCH  10  12
ATOM     12  C   UNL     1      25.686   2.749 -25.646  0.00  0.00    +0.083 A 
ATOM     13  C   UNL     1      26.014   2.117 -26.831  0.00  0.00    +0.097 A 
ATOM     14  C   UNL     1      25.485   4.086 -26.059  0.00  0.00    +0.148 A 
ATOM     15  N   UNL     1      25.864   3.028 -27.853  0.00  0.00    -0.236 N 
ATOM     16  C   UNL     1      26.441   0.788 -27.175  0.00  0.00    +0.139 A 
ATOM     17  N   UNL     1      25.521   4.247 -27.382  0.00  0.00    -0.174 NA
ATOM     18  C   UNL     1      26.076   2.633 -29.161  0.00  0.00    +0.132 A 
ATOM     19  N   UNL     1      26.654   0.427 -28.412  0.00  0.00    -0.260 NA
ATOM     20  C   UNL     1      26.457   1.371 -29.403  0.00  0.00    +0.130 A 
ENDBRANCH  10  12
BRANCH   2  21
ATOM     21  C   UNL     1      31.240   6.209 -22.506  0.00  0.00    +0.251 C 
ATOM     22  O   UNL     1      32.378   5.883 -22.174  0.00  0.00    -0.270 OA
ATOM     23  N   UNL     1      30.965   7.478 -22.968  0.00  0.00    -0.307 N 
ATOM     24  H   UNL     1      30.035   7.714 -23.188  0.00  0.00    +0.149 HD
BRANCH  23  25
ATOM     25  C   UNL     1      32.000   8.472 -23.142  0.00  0.00    +0.139 C 
BRANCH  25  26
ATOM     26  C   UNL     1      32.883   8.181 -24.328  0.00  0.00    -0.030 A 
ATOM     27  C   UNL     1      32.320   7.888 -25.579  0.00  0.00    +0.005 A 
ATOM     28  C   UNL     1      34.278   8.277 -24.221  0.00  0.00    +0.005 A 
ATOM     29  C   UNL     1      33.136   7.694 -26.697  0.00  0.00    +0.000 A 
ATOM     30  C   UNL     1      35.091   8.086 -25.341  0.00  0.00    +0.000 A 
ATOM     31  C   UNL     1      34.520   7.797 -26.579  0.00  0.00    +0.000 A 
ENDBRANCH  25  26
ENDBRANCH  23  25
ENDBRANCH   2  21
TORSDOF 4
ENDMDL
MODEL 3
REMARK VINA RESULT:   -10.469      0.980      1.350
REMARK INTER + INTRA:         -13.582
REMARK INTER:                 -13.119
REMARK INTRA:                  -0.463
REMARK UNBOUND:                -0.664
REMARK  Name = CTX-1020671
REMARK  4 active torsions:
REMARK  status: ('A' for Active; 'I' for Inactive)
REMARK    1  A    between atoms: C_2  and  C_4
REMARK    2  A    between atoms: N_9  and  C_12
REMARK    3  A    between atoms: C_12  and  C_14
REMARK    4  A    between atoms: C_15  and  C_19
REMARK                            x       y       z     vdW  Elec       q    Type
REMARK                         _______ _______ _______ _____ _____    ______ ____
ROOT
ATOM      1  S   UNL     1      23.647  -0.300 -23.443  0.00  0.00    -0.088 S 
ATOM      2  C   UNL     1      24.425   0.958 -22.574  0.00  0.00    +0.074 A 
ATOM      3  C   UNL     1      23.014  -0.980 -22.018  0.00  0.00    -0.003 A 
ATOM      4  C   UNL     1      24.184   0.845 -21.214  0.00  0.00    +0.026 A 
ATOM      5  C   UNL     1      23.387  -0.287 -20.880  0.00  0.00    -0.019 A 
ATOM      6  C   UNL     1      22.109  -2.182 -22.008  0.00  0.00    +0.062 C 
ATOM      7  C   UNL     1      22.985  -0.725 -19.501  0.00  0.00    +0.144 C 
ATOM      8  C   UNL     1      21.946  -2.691 -20.560  0.00  0.00    +0.113 C 
ATOM      9  N   UNL     1      21.786  -1.562 -19.627  0.00  0.00    -0.293 N 
ATOM     10  C   UNL     1      20.551  -1.350 -19.018  0.00  0.00    +0.251 C 
ATOM     11  O   UNL     1      19.661  -2.196 -19.065  0.00  0.00    -0.270 OA
ENDROOT
BRANCH  10  12
ATOM     12  C   UNL     1      20.317  -0.106 -18.296  0.00  0.00    +0.083 A 
ATOM     13  C   UNL     1      19.926   0.016 -16.975  0.00  0.00    +0.097 A 
ATOM     14  C   UNL     1      20.306   1.235 -18.743  0.00  0.00    +0.148 A 
ATOM     15  N   UNL     1      19.844   1.360 -16.681  0.00  0.00    -0.236 N 
ATOM     16  C   UNL     1      19.623  -0.919 -15.927  0.00  0.00    +0.139 A 
ATOM     17  N   UNL     1      20.093   2.120 -17.769  0.00  0.00    -0.174 NA
ATOM     18  C   UNL     1      19.526   1.763 -15.397  0.00  0.00    +0.132 A 
ATOM     19  N   UNL     1      19.308  -0.530 -14.720  0.00  0.00    -0.260 NA
ATOM     20  C   UNL     1      19.271   0.828 -14.469  0.00  0.00    +0.130 A 
ENDBRANCH  10  12
BRANCH   2  21
ATOM     21  C   UNL     1      25.232   1.995 -23.205  0.00  0.00    +0.251 C 
ATOM     22  O   UNL     1      25.573   3.009 -22.599  0.00  0.00    -0.270 OA
ATOM     23  N   UNL     1      25.612   1.781 -24.513  0.00  0.00    -0.307 N 
ATOM     24  H   UNL     1      25.288   0.976 -24.978  0.00  0.00    +0.149 HD
BRANCH  23  25
ATOM     25  C   UNL     1      26.472   2.701 -25.222  0.00  0.00    +0.139 C 
BRANCH  25  26
ATOM     26  C   UNL     1      26.394   2.524 -26.717  0.00  0.00    -0.030 A 
ATOM     27  C   UNL     1      27.000   1.422 -27.337  0.00  0.00    +0.005 A 
ATOM     28  C   UNL     1      25.645   3.413 -27.504  0.00  0.00    +0.005 A 
ATOM     29  C   UNL     1      26.864   1.215 -28.712  0.00  0.00    +0.000 A 
ATOM     30  C   UNL     1      25.507   3.202 -28.877  0.00  0.00    +0.000 A 
ATOM     31  C   UNL     1      26.114   2.102 -29.480  0.00  0.00    +0.000 A 
ENDBRANCH  25  26
ENDBRANCH  23  25
ENDBRANCH   2  21
TORSDOF 4
ENDMDL
MODEL 4
REMARK VINA RESULT:   -10.060      4.518      6.678
REMARK INTER + INTRA:         -13.076
REMARK INTER:                 -12.282
REMARK INTRA:                  -0.795
REMARK UNBOUND:                -0.664
REMARK  Name = CTX-1020671
REMARK  4 active torsions:
REMARK  status: ('A' for Active; 'I' for Inactive)
REMARK    1  A    between atoms: C_2  and  C_4
REMARK    2  A    between atoms: N_9  and  C_12
REMARK    3  A    between atoms: C_12  and  C_14
REMARK    4  A    between atoms: C_15  and  C_19
REMARK                            x       y       z     vdW  Elec       q    Type
REMARK                         _______ _______ _______ _____ _____    ______ ____
ROOT
ATOM      1  S   UNL     1      24.056   0.665 -18.699  0.00  0.00    -0.088 S 
ATOM      2  C   UNL     1      22.568   0.583 -19.548  0.00  0.00    +0.074 A 
ATOM      3  C   UNL     1      23.457   1.848 -17.634  0.00  0.00    -0.003 A 
ATOM      4  C   UNL     1      21.636   1.454 -19.004  0.00  0.00    +0.026 A 
ATOM      5  C   UNL     1      22.149   2.206 -17.909  0.00  0.00    -0.019 A 
ATOM      6  C   UNL     1      24.257   2.410 -16.489  0.00  0.00    +0.062 C 
ATOM      7  C   UNL     1      21.422   3.265 -17.131  0.00  0.00    +0.144 C 
ATOM      8  C   UNL     1      23.526   3.639 -15.906  0.00  0.00    +0.113 C 
ATOM      9  N   UNL     1      22.076   3.390 -15.823  0.00  0.00    -0.293 N 
ATOM     10  C   UNL     1      21.480   3.237 -14.572  0.00  0.00    +0.251 C 
ATOM     11  O   UNL     1      22.083   3.516 -13.538  0.00  0.00    -0.270 OA
ENDROOT
BRANCH  10  12
ATOM     12  C   UNL     1      20.110   2.750 -14.491  0.00  0.00    +0.083 A 
ATOM     13  C   UNL     1      19.667   1.481 -14.820  0.00  0.00    +0.097 A 
ATOM     14  C   UNL     1      18.905   3.424 -14.189  0.00  0.00    +0.148 A 
ATOM     15  N   UNL     1      18.313   1.429 -14.574  0.00  0.00    -0.236 N 
ATOM     16  C   UNL     1      20.304   0.295 -15.321  0.00  0.00    +0.139 A 
ATOM     17  N   UNL     1      17.837   2.626 -14.169  0.00  0.00    -0.174 NA
ATOM     18  C   UNL     1      17.626   0.244 -14.767  0.00  0.00    +0.132 A 
ATOM     19  N   UNL     1      19.645  -0.817 -15.514  0.00  0.00    -0.260 NA
ATOM     20  C   UNL     1      18.295  -0.825 -15.222  0.00  0.00    +0.130 A 
ENDBRANCH  10  12
BRANCH   2  21
ATOM     21  C   UNL     1      22.339  -0.289 -20.693  0.00  0.00    +0.251 C 
ATOM     22  O   UNL     1      22.737   0.002 -21.820  0.00  0.00    -0.270 OA
ATOM     23  N   UNL     1      21.667  -1.469 -20.455  0.00  0.00    -0.307 N 
ATOM     24  H   UNL     1      21.329  -1.650 -19.548  0.00  0.00    +0.149 HD
BRANCH  23  25
ATOM     25  C   UNL     1      21.443  -2.448 -21.495  0.00  0.00    +0.139 C 
BRANCH  25  26
ATOM     26  C   UNL     1      21.337  -3.850 -20.951  0.00  0.00    -0.030 A 
ATOM     27  C   UNL     1      21.513  -4.957 -21.793  0.00  0.00    +0.005 A 
ATOM     28  C   UNL     1      21.142  -4.070 -19.579  0.00  0.00    +0.005 A 
ATOM     29  C   UNL     1      21.491  -6.254 -21.276  0.00  0.00    +0.000 A 
ATOM     30  C   UNL     1      21.124  -5.368 -19.063  0.00  0.00    +0.000 A 
ATOM     31  C   UNL     1      21.301  -6.459 -19.912  0.00  0.00    +0.000 A 
ENDBRANCH  25  26
ENDBRANCH  23  25
ENDBRANCH   2  21
TORSDOF 4
ENDMDL
MODEL 5
REMARK VINA RESULT:    -9.880      2.399      4.248
REMARK INTER + INTRA:         -12.855
REMARK INTER:                 -12.252
REMARK INTRA:                  -0.603
REMARK UNBOUND:                -0.664
REMARK  Name = CTX-1020671
REMARK  4 active torsions:
REMARK  status: ('A' for Active; 'I' for Inactive)
REMARK    1  A    between atoms: C_2  and  C_4
REMARK    2  A    between atoms: N_9  and  C_12
REMARK    3  A    between atoms: C_12  and  C_14
REMARK    4  A    between atoms: C_15  and  C_19
REMARK                            x       y       z     vdW  Elec       q    Type
REMARK                         _______ _______ _______ _____ _____    ______ ____
ROOT
ATOM      1  S   UNL     1      25.825   1.713 -20.070  0.00  0.00    -0.088 S 
ATOM      2  C   UNL     1      25.292   1.430 -21.676  0.00  0.00    +0.074 A 
ATOM      3  C   UNL     1      24.235   1.670 -19.466  0.00  0.00    -0.003 A 
ATOM      4  C   UNL     1      23.913   1.302 -21.726  0.00  0.00    +0.026 A 
ATOM      5  C   UNL     1      23.290   1.461 -20.455  0.00  0.00    -0.019 A 
ATOM      6  C   UNL     1      23.903   1.803 -18.004  0.00  0.00    +0.062 C 
ATOM      7  C   UNL     1      21.817   1.430 -20.169  0.00  0.00    +0.144 C 
ATOM      8  C   UNL     1      22.380   1.995 -17.839  0.00  0.00    +0.113 C 
ATOM      9  N   UNL     1      21.642   1.102 -18.749  0.00  0.00    -0.293 N 
ATOM     10  C   UNL     1      20.923   0.031 -18.220  0.00  0.00    +0.251 C 
ATOM     11  O   UNL     1      20.710  -0.062 -17.014  0.00  0.00    -0.270 OA
ENDROOT
BRANCH  10  12
ATOM     12  C   UNL     1      20.401  -0.989 -19.119  0.00  0.00    +0.083 A 
ATOM     13  C   UNL     1      21.143  -1.820 -19.939  0.00  0.00    +0.097 A 
ATOM     14  C   UNL     1      19.073  -1.316 -19.476  0.00  0.00    +0.148 A 
ATOM     15  N   UNL     1      20.268  -2.652 -20.602  0.00  0.00    -0.236 N 
ATOM     16  C   UNL     1      22.547  -1.976 -20.203  0.00  0.00    +0.139 A 
ATOM     17  N   UNL     1      18.983  -2.354 -20.308  0.00  0.00    -0.174 NA
ATOM     18  C   UNL     1      20.758  -3.628 -21.450  0.00  0.00    +0.132 A 
ATOM     19  N   UNL     1      23.001  -2.892 -21.017  0.00  0.00    -0.260 NA
ATOM     20  C   UNL     1      22.083  -3.721 -21.632  0.00  0.00    +0.130 A 
ENDBRANCH  10  12
BRANCH   2  21
ATOM     21  C   UNL     1      26.190   1.348 -22.821  0.00  0.00    +0.251 C 
ATOM     22  O   UNL     1      27.409   1.451 -22.697  0.00  0.00    -0.270 OA
ATOM     23  N   UNL     1      25.611   1.133 -24.054  0.00  0.00    -0.307 N 
ATOM     24  H   UNL     1      24.630   1.095 -24.119  0.00  0.00    +0.149 HD
BRANCH  23  25
ATOM     25  C   UNL     1      26.401   0.961 -25.252  0.00  0.00    +0.139 C 
BRANCH  25  26
ATOM     26  C   UNL     1      26.054   1.970 -26.317  0.00  0.00    -0.030 A 
ATOM     27  C   UNL     1      26.391   1.734 -27.658  0.00  0.00    +0.005 A 
ATOM     28  C   UNL     1      25.318   3.121 -25.999  0.00  0.00    +0.005 A 
ATOM     29  C   UNL     1      26.003   2.631 -28.657  0.00  0.00    +0.000 A 
ATOM     30  C   UNL     1      24.928   4.014 -26.999  0.00  0.00    +0.000 A 
ATOM     31  C   UNL     1      25.268   3.768 -28.328  0.00  0.00    +0.000 A 
ENDBRANCH  25  26
ENDBRANCH  23  25
ENDBRANCH   2  21
TORSDOF 4
ENDMDL
