MODEL 1
REMARK VINA RESULT:   -11.610      0.000      0.000
REMARK INTER + INTRA:         -15.570
REMARK INTER:                 -14.664
REMARK INTRA:                  -0.906
REMARK UNBOUND:                -0.906
REMARK  Name = CTX-1020566
REMARK  6 active torsions:
REMARK  status: ('A' for Active; 'I' for Inactive)
REMARK    1  A    between atoms: C_2  and  C_4
REMARK    2  A    between atoms: N_3  and  C_5
REMARK    3  A    between atoms: C_5  and  C_8
REMARK    4  A    between atoms: C_19  and  O_22
REMARK    5  A    between atoms: C_21  and  C_24
REMARK    6  A    between atoms: C_26  and  C_29
REMARK                            x       y       z     vdW  Elec       q    Type
REMARK                         _______ _______ _______ _____ _____    ______ ____
ROOT
ATOM      1  C   UNL     1      24.998   0.970 -23.563  0.00  0.00    +0.126 A 
ATOM      2  N   UNL     1      25.188   1.255 -22.239  0.00  0.00    -0.245 NA
ATOM      3  C   UNL     1      23.972   0.168 -24.048  0.00  0.00    +0.033 A 
ATOM      4  C   UNL     1      24.288   0.721 -21.355  0.00  0.00    +0.063 A 
ATOM      5  C   UNL     1      23.082  -0.376 -23.140  0.00  0.00    +0.008 A 
ATOM      6  C   UNL     1      23.233  -0.114 -21.777  0.00  0.00    -0.023 A 
ATOM      7  C   UNL     1      24.464   1.026 -19.860  0.00  0.00    +0.163 C 
ATOM      8  C   UNL     1      22.219  -0.670 -20.813  0.00  0.00    +0.056 C 
ATOM      9  N   UNL     1      23.287   0.676 -19.056  0.00  0.00    -0.289 N 
ATOM     10  C   UNL     1      22.670  -0.604 -19.360  0.00  0.00    +0.113 C 
ATOM     11  C   UNL     1      22.970   1.384 -17.892  0.00  0.00    +0.283 C 
ATOM     12  O   UNL     1      23.835   1.974 -17.249  0.00  0.00    -0.267 OA
ENDROOT
BRANCH  11  13
ATOM     13  C   UNL     1      21.536   1.600 -17.671  0.00  0.00    +0.194 A 
ATOM     14  O   UNL     1      21.021   0.999 -16.544  0.00  0.00    -0.450 OA
ATOM     15  C   UNL     1      20.468   1.825 -18.539  0.00  0.00    +0.008 A 
ATOM     16  C   UNL     1      19.927   0.337 -16.968  0.00  0.00    +0.136 A 
ATOM     17  C   UNL     1      19.612   0.716 -18.262  0.00  0.00    +0.024 A 
ATOM     18  C   UNL     1      20.264   2.840 -19.611  0.00  0.00    +0.048 C 
ATOM     19  C   UNL     1      19.276  -0.653 -16.244  0.00  0.00    +0.047 A 
ATOM     20  C   UNL     1      18.622  -0.004 -18.950  0.00  0.00    +0.012 A 
ATOM     21  C   UNL     1      18.327  -1.384 -16.957  0.00  0.00    +0.004 A 
ATOM     22  C   UNL     1      18.026  -1.090 -18.293  0.00  0.00    +0.001 A 
ENDBRANCH  11  13
BRANCH   1  24
ATOM     23  O   UNL     1      26.540   2.605 -24.345  0.00  0.00    -0.269 OA
ATOM     24  C   UNL     1      25.936   1.561 -24.582  0.00  0.00    +0.263 C 
ATOM     25  N   UNL     1      26.084   0.864 -25.751  0.00  0.00    -0.306 N 
ATOM     26  H   UNL     1      25.558   0.044 -25.887  0.00  0.00    +0.149 HD
BRANCH  25  27
ATOM     27  C   UNL     1      26.991   1.299 -26.794  0.00  0.00    +0.140 C 
BRANCH  27  28
ATOM     28  C   UNL     1      26.276   2.092 -27.861  0.00  0.00    -0.030 A 
ATOM     29  C   UNL     1      26.365   1.717 -29.211  0.00  0.00    +0.009 A 
ATOM     30  C   UNL     1      25.524   3.225 -27.518  0.00  0.00    +0.009 A 
ATOM     31  C   UNL     1      25.700   2.450 -30.199  0.00  0.00    +0.046 A 
ATOM     32  C   UNL     1      24.865   3.958 -28.505  0.00  0.00    +0.046 A 
ATOM     33  C   UNL     1      24.954   3.566 -29.835  0.00  0.00    +0.117 A 
BRANCH  33  34
ATOM     34  O   UNL     1      24.287   4.310 -30.762  0.00  0.00    -0.507 OA
ATOM     35  H   UNL     1      24.382   5.242 -30.770  0.00  0.00    +0.292 HD
ENDBRANCH  33  34
ENDBRANCH  27  28
ENDBRANCH  25  27
ENDBRANCH   1  24
TORSDOF 5
ENDMDL
MODEL 2
REMARK VINA RESULT:   -10.762      3.649      4.998
REMARK INTER + INTRA:         -14.500
REMARK INTER:                 -13.728
REMARK INTRA:                  -0.772
REMARK UNBOUND:                -0.906
REMARK  Name = CTX-1020566
REMARK  6 active torsions:
REMARK  status: ('A' for Active; 'I' for Inactive)
REMARK    1  A    between atoms: C_2  and  C_4
REMARK    2  A    between atoms: N_3  and  C_5
REMARK    3  A    between atoms: C_5  and  C_8
REMARK    4  A    between atoms: C_19  and  O_22
REMARK    5  A    between atoms: C_21  and  C_24
REMARK    6  A    between atoms: C_26  and  C_29
REMARK                            x       y       z     vdW  Elec       q    Type
REMARK                         _______ _______ _______ _____ _____    ______ ____
ROOT
ATOM      1  C   UNL     1      25.750   2.620 -23.755  0.00  0.00    +0.126 A 
ATOM      2  N   UNL     1      25.543   2.536 -22.406  0.00  0.00    -0.245 NA
ATOM      3  C   UNL     1      25.295   1.682 -24.674  0.00  0.00    +0.033 A 
ATOM      4  C   UNL     1      24.826   1.458 -21.956  0.00  0.00    +0.063 A 
ATOM      5  C   UNL     1      24.586   0.593 -24.201  0.00  0.00    +0.008 A 
ATOM      6  C   UNL     1      24.349   0.462 -22.831  0.00  0.00    -0.023 A 
ATOM      7  C   UNL     1      24.566   1.333 -20.447  0.00  0.00    +0.163 C 
ATOM      8  C   UNL     1      23.526  -0.702 -22.346  0.00  0.00    +0.056 C 
ATOM      9  N   UNL     1      23.539   0.337 -20.119  0.00  0.00    -0.289 N 
ATOM     10  C   UNL     1      23.621  -0.920 -20.841  0.00  0.00    +0.113 C 
ATOM     11  C   UNL     1      22.730   0.479 -18.987  0.00  0.00    +0.283 C 
ATOM     12  O   UNL     1      23.108   1.123 -18.010  0.00  0.00    -0.267 OA
ENDROOT
BRANCH  11  13
ATOM     13  C   UNL     1      21.335   0.061 -19.166  0.00  0.00    +0.194 A 
ATOM     14  O   UNL     1      20.431   1.087 -19.318  0.00  0.00    -0.450 OA
ATOM     15  C   UNL     1      20.620  -1.055 -18.731  0.00  0.00    +0.008 A 
ATOM     16  C   UNL     1      19.445   0.820 -18.441  0.00  0.00    +0.136 A 
ATOM     17  C   UNL     1      19.589  -0.464 -17.939  0.00  0.00    +0.024 A 
ATOM     18  C   UNL     1      20.880  -2.514 -18.878  0.00  0.00    +0.048 C 
ATOM     19  C   UNL     1      18.485   1.736 -18.030  0.00  0.00    +0.047 A 
ATOM     20  C   UNL     1      18.773  -0.860 -16.867  0.00  0.00    +0.012 A 
ATOM     21  C   UNL     1      17.715   1.340 -16.938  0.00  0.00    +0.004 A 
ATOM     22  C   UNL     1      17.874   0.081 -16.344  0.00  0.00    +0.001 A 
ENDBRANCH  11  13
BRANCH   1  24
ATOM     23  O   UNL     1      26.259   4.227 -25.436  0.00  0.00    -0.269 OA
ATOM     24  C   UNL     1      26.501   3.803 -24.308  0.00  0.00    +0.263 C 
ATOM     25  N   UNL     1      27.431   4.374 -23.481  0.00  0.00    -0.306 N 
ATOM     26  H   UNL     1      27.591   3.976 -22.596  0.00  0.00    +0.149 HD
BRANCH  25  27
ATOM     27  C   UNL     1      28.189   5.546 -23.873  0.00  0.00    +0.140 C 
BRANCH  27  28
ATOM     28  C   UNL     1      29.517   5.615 -23.160  0.00  0.00    -0.030 A 
ATOM     29  C   UNL     1      29.814   4.726 -22.114  0.00  0.00    +0.009 A 
ATOM     30  C   UNL     1      30.468   6.579 -23.523  0.00  0.00    +0.009 A 
ATOM     31  C   UNL     1      31.045   4.788 -21.455  0.00  0.00    +0.046 A 
ATOM     32  C   UNL     1      31.695   6.643 -22.861  0.00  0.00    +0.046 A 
ATOM     33  C   UNL     1      31.976   5.748 -21.836  0.00  0.00    +0.117 A 
BRANCH  33  34
ATOM     34  O   UNL     1      33.191   5.846 -21.224  0.00  0.00    -0.507 OA
ATOM     35  H   UNL     1      33.954   6.052 -21.728  0.00  0.00    +0.292 HD
ENDBRANCH  33  34
ENDBRANCH  27  28
ENDBRANCH  25  27
ENDBRANCH   1  24
TORSDOF 5
ENDMDL
MODEL 3
REMARK VINA RESULT:   -10.747      3.102      4.381
REMARK INTER + INTRA:         -14.480
REMARK INTER:                 -13.426
REMARK INTRA:                  -1.054
REMARK UNBOUND:                -0.906
REMARK  Name = CTX-1020566
REMARK  6 active torsions:
REMARK  status: ('A' for Active; 'I' for Inactive)
REMARK    1  A    between atoms: C_2  and  C_4
REMARK    2  A    between atoms: N_3  and  C_5
REMARK    3  A    between atoms: C_5  and  C_8
REMARK    4  A    between atoms: C_19  and  O_22
REMARK    5  A    between atoms: C_21  and  C_24
REMARK    6  A    between atoms: C_26  and  C_29
REMARK                            x       y       z     vdW  Elec       q    Type
REMARK                         _______ _______ _______ _____ _____    ______ ____
ROOT
ATOM      1  C   UNL     1      25.327   1.939 -22.855  0.00  0.00    +0.126 A 
ATOM      2  N   UNL     1      25.293   2.204 -21.514  0.00  0.00    -0.245 NA
ATOM      3  C   UNL     1      24.579   0.944 -23.473  0.00  0.00    +0.033 A 
ATOM      4  C   UNL     1      24.448   1.440 -20.753  0.00  0.00    +0.063 A 
ATOM      5  C   UNL     1      23.743   0.171 -22.687  0.00  0.00    +0.008 A 
ATOM      6  C   UNL     1      23.673   0.404 -21.312  0.00  0.00    -0.023 A 
ATOM      7  C   UNL     1      24.376   1.713 -19.243  0.00  0.00    +0.163 C 
ATOM      8  C   UNL     1      22.713  -0.412 -20.486  0.00  0.00    +0.056 C 
ATOM      9  N   UNL     1      23.230   1.067 -18.593  0.00  0.00    -0.289 N 
ATOM     10  C   UNL     1      22.968  -0.306 -18.988  0.00  0.00    +0.113 C 
ATOM     11  C   UNL     1      22.625   1.633 -17.466  0.00  0.00    +0.283 C 
ATOM     12  O   UNL     1      23.250   2.378 -16.713  0.00  0.00    -0.267 OA
ENDROOT
BRANCH  11  13
ATOM     13  C   UNL     1      21.165   1.503 -17.416  0.00  0.00    +0.194 A 
ATOM     14  O   UNL     1      20.684   0.680 -16.424  0.00  0.00    -0.450 OA
ATOM     15  C   UNL     1      20.174   1.589 -18.394  0.00  0.00    +0.008 A 
ATOM     16  C   UNL     1      19.825  -0.152 -17.043  0.00  0.00    +0.136 A 
ATOM     17  C   UNL     1      19.572   0.296 -18.330  0.00  0.00    +0.024 A 
ATOM     18  C   UNL     1      19.858   2.651 -19.389  0.00  0.00    +0.048 C 
ATOM     19  C   UNL     1      19.345  -1.338 -16.501  0.00  0.00    +0.047 A 
ATOM     20  C   UNL     1      18.855  -0.539 -19.202  0.00  0.00    +0.012 A 
ATOM     21  C   UNL     1      18.673  -2.170 -17.394  0.00  0.00    +0.004 A 
ATOM     22  C   UNL     1      18.458  -1.797 -18.727  0.00  0.00    +0.001 A 
ENDBRANCH  11  13
BRANCH   1  24
ATOM     23  O   UNL     1      26.393   2.461 -24.919  0.00  0.00    -0.269 OA
ATOM     24  C   UNL     1      26.211   2.774 -23.744  0.00  0.00    +0.263 C 
ATOM     25  N   UNL     1      26.767   3.889 -23.176  0.00  0.00    -0.306 N 
ATOM     26  H   UNL     1      26.597   4.075 -22.225  0.00  0.00    +0.149 HD
BRANCH  25  27
ATOM     27  C   UNL     1      27.599   4.802 -23.934  0.00  0.00    +0.140 C 
BRANCH  27  28
ATOM     28  C   UNL     1      28.932   5.029 -23.264  0.00  0.00    -0.030 A 
ATOM     29  C   UNL     1      29.383   4.159 -22.258  0.00  0.00    +0.009 A 
ATOM     30  C   UNL     1      29.732   6.121 -23.628  0.00  0.00    +0.009 A 
ATOM     31  C   UNL     1      30.619   4.368 -21.638  0.00  0.00    +0.046 A 
ATOM     32  C   UNL     1      30.963   6.331 -23.006  0.00  0.00    +0.046 A 
ATOM     33  C   UNL     1      31.399   5.454 -22.020  0.00  0.00    +0.117 A 
BRANCH  33  34
ATOM     34  O   UNL     1      32.612   5.696 -21.447  0.00  0.00    -0.507 OA
ATOM     35  H   UNL     1      32.792   6.535 -21.068  0.00  0.00    +0.292 HD
ENDBRANCH  33  34
ENDBRANCH  27  28
ENDBRANCH  25  27
ENDBRANCH   1  24
TORSDOF 5
ENDMDL
MODEL 4
REMARK VINA RESULT:   -10.660      2.432      3.824
REMARK INTER + INTRA:         -14.371
REMARK INTER:                 -13.730
REMARK INTRA:                  -0.641
REMARK UNBOUND:                -0.906
REMARK  Name = CTX-1020566
REMARK  6 active torsions:
REMARK  status: ('A' for Active; 'I' for Inactive)
REMARK    1  A    between atoms: C_2  and  C_4
REMARK    2  A    between atoms: N_3  and  C_5
REMARK    3  A    between atoms: C_5  and  C_8
REMARK    4  A    between atoms: C_19  and  O_22
REMARK    5  A    between atoms: C_21  and  C_24
REMARK    6  A    between atoms: C_26  and  C_29
REMARK                            x       y       z     vdW  Elec       q    Type
REMARK                         _______ _______ _______ _____ _____    ______ ____
ROOT
ATOM      1  C   UNL     1      26.375   3.084 -22.589  0.00  0.00    +0.126 A 
ATOM      2  N   UNL     1      25.095   2.994 -22.117  0.00  0.00    -0.245 NA
ATOM      3  C   UNL     1      27.458   2.410 -22.038  0.00  0.00    +0.033 A 
ATOM      4  C   UNL     1      24.887   2.167 -21.044  0.00  0.00    +0.063 A 
ATOM      5  C   UNL     1      27.234   1.592 -20.946  0.00  0.00    +0.008 A 
ATOM      6  C   UNL     1      25.943   1.466 -20.427  0.00  0.00    -0.023 A 
ATOM      7  C   UNL     1      23.460   2.033 -20.491  0.00  0.00    +0.163 C 
ATOM      8  C   UNL     1      25.713   0.526 -19.273  0.00  0.00    +0.056 C 
ATOM      9  N   UNL     1      23.302   0.902 -19.568  0.00  0.00    -0.289 N 
ATOM     10  C   UNL     1      24.365   0.727 -18.593  0.00  0.00    +0.113 C 
ATOM     11  C   UNL     1      22.080   0.234 -19.447  0.00  0.00    +0.283 C 
ATOM     12  O   UNL     1      21.018   0.793 -19.711  0.00  0.00    -0.267 OA
ENDROOT
BRANCH  11  13
ATOM     13  C   UNL     1      22.184  -1.219 -19.268  0.00  0.00    +0.194 A 
ATOM     14  O   UNL     1      23.228  -1.818 -19.936  0.00  0.00    -0.450 OA
ATOM     15  C   UNL     1      21.237  -2.211 -19.014  0.00  0.00    +0.008 A 
ATOM     16  C   UNL     1      22.675  -2.855 -20.593  0.00  0.00    +0.136 A 
ATOM     17  C   UNL     1      21.379  -3.063 -20.150  0.00  0.00    +0.024 A 
ATOM     18  C   UNL     1      20.206  -2.341 -17.947  0.00  0.00    +0.048 C 
ATOM     19  C   UNL     1      23.285  -3.546 -21.632  0.00  0.00    +0.047 A 
ATOM     20  C   UNL     1      20.569  -3.973 -20.849  0.00  0.00    +0.012 A 
ATOM     21  C   UNL     1      22.454  -4.413 -22.339  0.00  0.00    +0.004 A 
ATOM     22  C   UNL     1      21.113  -4.602 -21.979  0.00  0.00    +0.001 A 
ENDBRANCH  11  13
BRANCH   1  24
ATOM     23  O   UNL     1      27.633   4.692 -23.813  0.00  0.00    -0.269 OA
ATOM     24  C   UNL     1      26.653   3.950 -23.789  0.00  0.00    +0.263 C 
ATOM     25  N   UNL     1      25.777   3.840 -24.835  0.00  0.00    -0.306 N 
ATOM     26  H   UNL     1      25.002   3.241 -24.748  0.00  0.00    +0.149 HD
BRANCH  25  27
ATOM     27  C   UNL     1      25.956   4.583 -26.068  0.00  0.00    +0.140 C 
BRANCH  27  28
ATOM     28  C   UNL     1      25.936   3.675 -27.273  0.00  0.00    -0.030 A 
ATOM     29  C   UNL     1      26.655   2.469 -27.272  0.00  0.00    +0.009 A 
ATOM     30  C   UNL     1      25.210   4.033 -28.418  0.00  0.00    +0.009 A 
ATOM     31  C   UNL     1      26.635   1.627 -28.388  0.00  0.00    +0.046 A 
ATOM     32  C   UNL     1      25.193   3.194 -29.532  0.00  0.00    +0.046 A 
ATOM     33  C   UNL     1      25.902   1.998 -29.510  0.00  0.00    +0.117 A 
BRANCH  33  34
ATOM     34  O   UNL     1      25.850   1.209 -30.620  0.00  0.00    -0.507 OA
ATOM     35  H   UNL     1      26.405   0.457 -30.686  0.00  0.00    +0.292 HD
ENDBRANCH  33  34
ENDBRANCH  27  28
ENDBRANCH  25  27
ENDBRANCH   1  24
TORSDOF 5
ENDMDL
MODEL 5
REMARK VINA RESULT:   -10.607      5.447      6.587
REMARK INTER + INTRA:         -14.303
REMARK INTER:                 -13.423
REMARK INTRA:                  -0.881
REMARK UNBOUND:                -0.906
REMARK  Name = CTX-1020566
REMARK  6 active torsions:
REMARK  status: ('A' for Active; 'I' for Inactive)
REMARK    1  A    between atoms: C_2  and  C_4
REMARK    2  A    between atoms: N_3  and  C_5
REMARK    3  A    between atoms: C_5  and  C_8
REMARK    4  A    between atoms: C_19  and  O_22
REMARK    5  A    between atoms: C_21  and  C_24
REMARK    6  A    between atoms: C_26  and  C_29
REMARK                            x       y       z     vdW  Elec       q    Type
REMARK                         _______ _______ _______ _____ _____    ______ ____
ROOT
ATOM      1  C   UNL     1      28.953   4.794 -22.672  0.00  0.00    +0.126 A 
ATOM      2  N   UNL     1      28.625   3.759 -21.841  0.00  0.00    -0.245 NA
ATOM      3  C   UNL     1      28.332   5.043 -23.891  0.00  0.00    +0.033 A 
ATOM      4  C   UNL     1      27.605   2.939 -22.246  0.00  0.00    +0.063 A 
ATOM      5  C   UNL     1      27.316   4.196 -24.292  0.00  0.00    +0.008 A 
ATOM      6  C   UNL     1      26.943   3.124 -23.477  0.00  0.00    -0.023 A 
ATOM      7  C   UNL     1      27.202   1.770 -21.335  0.00  0.00    +0.163 C 
ATOM      8  C   UNL     1      25.796   2.249 -23.908  0.00  0.00    +0.056 C 
ATOM      9  N   UNL     1      25.918   1.164 -21.706  0.00  0.00    -0.289 N 
ATOM     10  C   UNL     1      25.708   0.945 -23.127  0.00  0.00    +0.113 C 
ATOM     11  C   UNL     1      25.092   0.573 -20.744  0.00  0.00    +0.283 C 
ATOM     12  O   UNL     1      25.554   0.122 -19.698  0.00  0.00    -0.267 OA
ENDROOT
BRANCH  11  13
ATOM     13  C   UNL     1      23.655   0.788 -20.946  0.00  0.00    +0.194 A 
ATOM     14  O   UNL     1      23.197   2.040 -20.606  0.00  0.00    -0.450 OA
ATOM     15  C   UNL     1      22.557  -0.073 -20.916  0.00  0.00    +0.008 A 
ATOM     16  C   UNL     1      22.128   1.821 -19.817  0.00  0.00    +0.136 A 
ATOM     17  C   UNL     1      21.764   0.486 -19.868  0.00  0.00    +0.024 A 
ATOM     18  C   UNL     1      22.279  -1.343 -21.641  0.00  0.00    +0.048 C 
ATOM     19  C   UNL     1      21.543   2.778 -18.998  0.00  0.00    +0.047 A 
ATOM     20  C   UNL     1      20.795   0.019 -18.965  0.00  0.00    +0.012 A 
ATOM     21  C   UNL     1      20.615   2.288 -18.081  0.00  0.00    +0.004 A 
ATOM     22  C   UNL     1      20.268   0.932 -18.040  0.00  0.00    +0.001 A 
ENDBRANCH  11  13
BRANCH   1  24
ATOM     23  O   UNL     1      30.975   5.367 -21.555  0.00  0.00    -0.269 OA
ATOM     24  C   UNL     1      30.042   5.749 -22.258  0.00  0.00    +0.263 C 
ATOM     25  N   UNL     1      29.937   7.032 -22.724  0.00  0.00    -0.306 N 
ATOM     26  H   UNL     1      29.155   7.280 -23.268  0.00  0.00    +0.149 HD
BRANCH  25  27
ATOM     27  C   UNL     1      30.941   8.037 -22.438  0.00  0.00    +0.140 C 
BRANCH  27  28
ATOM     28  C   UNL     1      32.009   8.077 -23.504  0.00  0.00    -0.030 A 
ATOM     29  C   UNL     1      31.708   7.731 -24.831  0.00  0.00    +0.009 A 
ATOM     30  C   UNL     1      33.322   8.445 -23.178  0.00  0.00    +0.009 A 
ATOM     31  C   UNL     1      32.697   7.769 -25.818  0.00  0.00    +0.046 A 
ATOM     32  C   UNL     1      34.309   8.479 -24.164  0.00  0.00    +0.046 A 
ATOM     33  C   UNL     1      33.991   8.145 -25.475  0.00  0.00    +0.117 A 
BRANCH  33  34
ATOM     34  O   UNL     1      34.987   8.200 -26.403  0.00  0.00    -0.507 OA
ATOM     35  H   UNL     1      35.354   7.407 -26.744  0.00  0.00    +0.292 HD
ENDBRANCH  33  34
ENDBRANCH  27  28
ENDBRANCH  25  27
ENDBRANCH   1  24
TORSDOF 5
ENDMDL
