MODEL 1
REMARK VINA RESULT:   -12.405      0.000      0.000
REMARK INTER + INTRA:         -16.998
REMARK INTER:                 -16.031
REMARK INTRA:                  -0.966
REMARK UNBOUND:                -0.966
REMARK  Name = CTX-1020685
REMARK  6 active torsions:
REMARK  status: ('A' for Active; 'I' for Inactive)
REMARK    1  A    between atoms: C_2  and  C_4
REMARK    2  A    between atoms: N_3  and  C_5
REMARK    3  A    between atoms: C_5  and  C_8
REMARK    4  A    between atoms: C_19  and  N_22
REMARK    5  A    between atoms: C_21  and  C_24
REMARK    6  A    between atoms: C_28  and  C_33
REMARK                            x       y       z     vdW  Elec       q    Type
REMARK                         _______ _______ _______ _____ _____    ______ ____
ROOT
ATOM      1  C   UNL     1      28.555   4.697 -22.959  0.00  0.00    +0.126 A 
ATOM      2  N   UNL     1      28.315   3.521 -22.310  0.00  0.00    -0.245 NA
ATOM      3  C   UNL     1      27.830   5.132 -24.059  0.00  0.00    +0.033 A 
ATOM      4  C   UNL     1      27.288   2.754 -22.785  0.00  0.00    +0.063 A 
ATOM      5  C   UNL     1      26.832   4.311 -24.563  0.00  0.00    +0.008 A 
ATOM      6  C   UNL     1      26.553   3.094 -23.935  0.00  0.00    -0.023 A 
ATOM      7  C   UNL     1      26.924   1.496 -21.998  0.00  0.00    +0.163 C 
ATOM      8  C   UNL     1      25.420   2.235 -24.443  0.00  0.00    +0.056 C 
ATOM      9  N   UNL     1      25.607   0.965 -22.350  0.00  0.00    -0.289 N 
ATOM     10  C   UNL     1      25.357   0.863 -23.774  0.00  0.00    +0.113 C 
ATOM     11  C   UNL     1      24.868   0.270 -21.373  0.00  0.00    +0.283 C 
ATOM     12  O   UNL     1      25.396  -0.031 -20.315  0.00  0.00    -0.267 OA
ENDROOT
BRANCH  11  13
ATOM     13  C   UNL     1      23.422   0.091 -21.623  0.00  0.00    +0.194 A 
ATOM     14  O   UNL     1      22.756   1.315 -21.603  0.00  0.00    -0.450 OA
ATOM     15  C   UNL     1      22.523  -0.773 -20.975  0.00  0.00    +0.008 A 
ATOM     16  C   UNL     1      22.146   1.325 -20.385  0.00  0.00    +0.136 A 
ATOM     17  C   UNL     1      22.045   0.028 -19.901  0.00  0.00    +0.024 A 
ATOM     18  C   UNL     1      21.882  -2.056 -21.360  0.00  0.00    +0.048 C 
ATOM     19  C   UNL     1      21.682   2.453 -19.721  0.00  0.00    +0.047 A 
ATOM     20  C   UNL     1      21.403  -0.193 -18.681  0.00  0.00    +0.012 A 
ATOM     21  C   UNL     1      21.096   2.216 -18.480  0.00  0.00    +0.004 A 
ATOM     22  C   UNL     1      20.959   0.923 -17.963  0.00  0.00    +0.001 A 
ENDBRANCH  11  13
BRANCH   1  24
ATOM     23  O   UNL     1      30.471   5.125 -21.624  0.00  0.00    -0.269 OA
ATOM     24  C   UNL     1      29.677   5.561 -22.467  0.00  0.00    +0.263 C 
ATOM     25  N   UNL     1      29.761   6.831 -22.992  0.00  0.00    -0.306 N 
ATOM     26  H   UNL     1      29.122   7.110 -23.686  0.00  0.00    +0.149 HD
BRANCH  25  27
ATOM     27  C   UNL     1      30.769   7.764 -22.540  0.00  0.00    +0.140 C 
BRANCH  27  28
ATOM     28  C   UNL     1      31.911   7.918 -23.514  0.00  0.00    -0.030 A 
ATOM     29  C   UNL     1      33.195   8.267 -23.079  0.00  0.00    +0.007 A 
ATOM     30  C   UNL     1      31.729   7.645 -24.872  0.00  0.00    +0.007 A 
ATOM     31  C   UNL     1      34.258   8.363 -24.002  0.00  0.00    +0.023 A 
ATOM     32  C   UNL     1      32.790   7.766 -25.776  0.00  0.00    +0.023 A 
ATOM     33  C   UNL     1      34.078   8.113 -25.358  0.00  0.00    +0.030 A 
BRANCH  33  34
ATOM     34  N   UNL     1      35.123   8.184 -26.252  0.00  0.00    -0.333 N 
ATOM     35  C   UNL     1      36.399   8.812 -25.900  0.00  0.00    +0.086 C 
ATOM     36  C   UNL     1      34.981   7.750 -27.646  0.00  0.00    +0.086 C 
ATOM     37  C   UNL     1      36.752   9.925 -26.907  0.00  0.00    -0.063 C 
ATOM     38  C   UNL     1      35.382   8.902 -28.600  0.00  0.00    -0.063 C 
ATOM     39  N   UNL     1      36.716   9.481 -28.319  0.00  0.00    +0.381 N 
ATOM     40  H   UNL     1      37.436   8.775 -28.475  0.00  0.00    -0.086 HD
ATOM     41  H   UNL     1      36.889  10.273 -28.937  0.00  0.00    -0.086 HD
ENDBRANCH  33  34
ENDBRANCH  27  28
ENDBRANCH  25  27
ENDBRANCH   1  24
TORSDOF 5
ENDMDL
MODEL 2
REMARK VINA RESULT:   -11.289      3.283     12.303
REMARK INTER + INTRA:         -15.556
REMARK INTER:                 -15.282
REMARK INTRA:                  -0.274
REMARK UNBOUND:                -0.966
REMARK  Name = CTX-1020685
REMARK  6 active torsions:
REMARK  status: ('A' for Active; 'I' for Inactive)
REMARK    1  A    between atoms: C_2  and  C_4
REMARK    2  A    between atoms: N_3  and  C_5
REMARK    3  A    between atoms: C_5  and  C_8
REMARK    4  A    between atoms: C_19  and  N_22
REMARK    5  A    between atoms: C_21  and  C_24
REMARK    6  A    between atoms: C_28  and  C_33
REMARK                            x       y       z     vdW  Elec       q    Type
REMARK                         _______ _______ _______ _____ _____    ______ ____
ROOT
ATOM      1  C   UNL     1      29.371   4.063 -18.064  0.00  0.00    +0.126 A 
ATOM      2  N   UNL     1      29.600   3.921 -19.401  0.00  0.00    -0.245 NA
ATOM      3  C   UNL     1      29.988   5.023 -17.273  0.00  0.00    +0.033 A 
ATOM      4  C   UNL     1      30.482   4.797 -19.971  0.00  0.00    +0.063 A 
ATOM      5  C   UNL     1      30.926   5.861 -17.858  0.00  0.00    +0.008 A 
ATOM      6  C   UNL     1      31.198   5.750 -19.224  0.00  0.00    -0.023 A 
ATOM      7  C   UNL     1      30.657   4.735 -21.487  0.00  0.00    +0.163 C 
ATOM      8  C   UNL     1      32.166   6.710 -19.873  0.00  0.00    +0.056 C 
ATOM      9  N   UNL     1      31.307   5.926 -22.035  0.00  0.00    -0.289 N 
ATOM     10  C   UNL     1      32.495   6.349 -21.321  0.00  0.00    +0.113 C 
ATOM     11  C   UNL     1      30.997   6.330 -23.348  0.00  0.00    +0.283 C 
ATOM     12  O   UNL     1      30.335   5.598 -24.066  0.00  0.00    -0.267 OA
ENDROOT
BRANCH  11  13
ATOM     13  C   UNL     1      31.352   7.714 -23.730  0.00  0.00    +0.194 A 
ATOM     14  O   UNL     1      31.262   7.890 -25.109  0.00  0.00    -0.450 OA
ATOM     15  C   UNL     1      32.499   8.448 -23.386  0.00  0.00    +0.008 A 
ATOM     16  C   UNL     1      32.562   7.860 -25.518  0.00  0.00    +0.136 A 
ATOM     17  C   UNL     1      33.398   8.129 -24.442  0.00  0.00    +0.024 A 
ATOM     18  C   UNL     1      32.756   9.552 -22.427  0.00  0.00    +0.048 C 
ATOM     19  C   UNL     1      32.998   7.611 -26.812  0.00  0.00    +0.047 A 
ATOM     20  C   UNL     1      34.775   8.196 -24.654  0.00  0.00    +0.012 A 
ATOM     21  C   UNL     1      34.380   7.626 -26.990  0.00  0.00    +0.004 A 
ATOM     22  C   UNL     1      35.256   7.909 -25.937  0.00  0.00    +0.001 A 
ENDBRANCH  11  13
BRANCH   1  24
ATOM     23  O   UNL     1      28.813   2.026 -16.979  0.00  0.00    -0.269 OA
ATOM     24  C   UNL     1      28.413   3.117 -17.405  0.00  0.00    +0.263 C 
ATOM     25  N   UNL     1      27.101   3.524 -17.313  0.00  0.00    -0.306 N 
ATOM     26  H   UNL     1      26.848   4.418 -17.636  0.00  0.00    +0.149 HD
BRANCH  25  27
ATOM     27  C   UNL     1      26.086   2.661 -16.750  0.00  0.00    +0.140 C 
BRANCH  27  28
ATOM     28  C   UNL     1      25.277   1.937 -17.797  0.00  0.00    -0.030 A 
ATOM     29  C   UNL     1      25.897   1.259 -18.854  0.00  0.00    +0.007 A 
ATOM     30  C   UNL     1      23.886   1.865 -17.697  0.00  0.00    +0.007 A 
ATOM     31  C   UNL     1      25.123   0.552 -19.798  0.00  0.00    +0.023 A 
ATOM     32  C   UNL     1      23.133   1.176 -18.654  0.00  0.00    +0.023 A 
ATOM     33  C   UNL     1      23.737   0.494 -19.715  0.00  0.00    +0.030 A 
BRANCH  33  34
ATOM     34  N   UNL     1      22.986  -0.218 -20.624  0.00  0.00    -0.333 N 
ATOM     35  C   UNL     1      22.575  -1.600 -20.370  0.00  0.00    +0.086 C 
ATOM     36  C   UNL     1      22.663   0.318 -21.950  0.00  0.00    +0.086 C 
ATOM     37  C   UNL     1      23.039  -2.525 -21.513  0.00  0.00    -0.063 C 
ATOM     38  C   UNL     1      23.127  -0.673 -23.046  0.00  0.00    -0.063 C 
ATOM     39  N   UNL     1      22.633  -2.057 -22.857  0.00  0.00    +0.381 N 
ATOM     40  H   UNL     1      21.616  -2.070 -22.933  0.00  0.00    -0.086 HD
ATOM     41  H   UNL     1      23.027  -2.667 -23.572  0.00  0.00    -0.086 HD
ENDBRANCH  33  34
ENDBRANCH  27  28
ENDBRANCH  25  27
ENDBRANCH   1  24
TORSDOF 5
ENDMDL
MODEL 3
REMARK VINA RESULT:   -11.114      4.266      7.046
REMARK INTER + INTRA:         -15.329
REMARK INTER:                 -14.648
REMARK INTRA:                  -0.681
REMARK UNBOUND:                -0.966
REMARK  Name = CTX-1020685
REMARK  6 active torsions:
REMARK  status: ('A' for Active; 'I' for Inactive)
REMARK    1  A    between atoms: C_2  and  C_4
REMARK    2  A    between atoms: N_3  and  C_5
REMARK    3  A    between atoms: C_5  and  C_8
REMARK    4  A    between atoms: C_19  and  N_22
REMARK    5  A    between atoms: C_21  and  C_24
REMARK    6  A    between atoms: C_28  and  C_33
REMARK                            x       y       z     vdW  Elec       q    Type
REMARK                         _______ _______ _______ _____ _____    ______ ____
ROOT
ATOM      1  C   UNL     1      24.583   2.838 -16.242  0.00  0.00    +0.126 A 
ATOM      2  N   UNL     1      24.619   2.073 -17.371  0.00  0.00    -0.245 NA
ATOM      3  C   UNL     1      23.409   3.221 -15.608  0.00  0.00    +0.033 A 
ATOM      4  C   UNL     1      23.416   1.665 -17.877  0.00  0.00    +0.063 A 
ATOM      5  C   UNL     1      22.198   2.848 -16.172  0.00  0.00    +0.008 A 
ATOM      6  C   UNL     1      22.185   2.069 -17.331  0.00  0.00    -0.023 A 
ATOM      7  C   UNL     1      23.441   0.706 -19.066  0.00  0.00    +0.163 C 
ATOM      8  C   UNL     1      20.867   1.604 -17.903  0.00  0.00    +0.056 C 
ATOM      9  N   UNL     1      22.158   0.040 -19.287  0.00  0.00    -0.289 N 
ATOM     10  C   UNL     1      21.006   0.921 -19.262  0.00  0.00    +0.113 C 
ATOM     11  C   UNL     1      22.146  -1.248 -19.857  0.00  0.00    +0.283 C 
ATOM     12  O   UNL     1      23.175  -1.716 -20.315  0.00  0.00    -0.267 OA
ENDROOT
BRANCH  11  13
ATOM     13  C   UNL     1      20.905  -2.039 -19.712  0.00  0.00    +0.194 A 
ATOM     14  O   UNL     1      21.105  -3.133 -18.872  0.00  0.00    -0.450 OA
ATOM     15  C   UNL     1      20.075  -2.556 -20.720  0.00  0.00    +0.008 A 
ATOM     16  C   UNL     1      21.208  -4.181 -19.736  0.00  0.00    +0.136 A 
ATOM     17  C   UNL     1      20.639  -3.840 -20.956  0.00  0.00    +0.024 A 
ATOM     18  C   UNL     1      18.748  -2.157 -21.256  0.00  0.00    +0.048 C 
ATOM     19  C   UNL     1      21.781  -5.413 -19.451  0.00  0.00    +0.047 A 
ATOM     20  C   UNL     1      20.594  -4.794 -21.973  0.00  0.00    +0.012 A 
ATOM     21  C   UNL     1      21.776  -6.331 -20.499  0.00  0.00    +0.004 A 
ATOM     22  C   UNL     1      21.199  -6.034 -21.738  0.00  0.00    +0.001 A 
ENDBRANCH  11  13
BRANCH   1  24
ATOM     23  O   UNL     1      25.970   3.549 -14.451  0.00  0.00    -0.269 OA
ATOM     24  C   UNL     1      25.883   3.308 -15.662  0.00  0.00    +0.263 C 
ATOM     25  N   UNL     1      26.936   3.456 -16.535  0.00  0.00    -0.306 N 
ATOM     26  H   UNL     1      26.818   3.215 -17.481  0.00  0.00    +0.149 HD
BRANCH  25  27
ATOM     27  C   UNL     1      28.216   3.961 -16.087  0.00  0.00    +0.140 C 
BRANCH  27  28
ATOM     28  C   UNL     1      28.999   4.641 -17.183  0.00  0.00    -0.030 A 
ATOM     29  C   UNL     1      29.501   3.920 -18.273  0.00  0.00    +0.007 A 
ATOM     30  C   UNL     1      29.182   6.026 -17.172  0.00  0.00    +0.007 A 
ATOM     31  C   UNL     1      30.192   4.584 -19.308  0.00  0.00    +0.023 A 
ATOM     32  C   UNL     1      29.889   6.664 -18.196  0.00  0.00    +0.023 A 
ATOM     33  C   UNL     1      30.396   5.959 -19.292  0.00  0.00    +0.030 A 
BRANCH  33  34
ATOM     34  N   UNL     1      31.050   6.606 -20.316  0.00  0.00    -0.333 N 
ATOM     35  C   UNL     1      30.358   7.005 -21.544  0.00  0.00    +0.086 C 
ATOM     36  C   UNL     1      32.501   6.822 -20.295  0.00  0.00    +0.086 C 
ATOM     37  C   UNL     1      31.064   6.416 -22.782  0.00  0.00    -0.063 C 
ATOM     38  C   UNL     1      33.139   6.236 -21.579  0.00  0.00    -0.063 C 
ATOM     39  N   UNL     1      32.514   6.711 -22.834  0.00  0.00    +0.381 N 
ATOM     40  H   UNL     1      32.656   7.716 -22.929  0.00  0.00    -0.086 HD
ATOM     41  H   UNL     1      32.936   6.239 -23.633  0.00  0.00    -0.086 HD
ENDBRANCH  33  34
ENDBRANCH  27  28
ENDBRANCH  25  27
ENDBRANCH   1  24
TORSDOF 5
ENDMDL
MODEL 4
REMARK VINA RESULT:   -11.071      3.725     12.730
REMARK INTER + INTRA:         -15.273
REMARK INTER:                 -15.006
REMARK INTRA:                  -0.267
REMARK UNBOUND:                -0.966
REMARK  Name = CTX-1020685
REMARK  6 active torsions:
REMARK  status: ('A' for Active; 'I' for Inactive)
REMARK    1  A    between atoms: C_2  and  C_4
REMARK    2  A    between atoms: N_3  and  C_5
REMARK    3  A    between atoms: C_5  and  C_8
REMARK    4  A    between atoms: C_19  and  N_22
REMARK    5  A    between atoms: C_21  and  C_24
REMARK    6  A    between atoms: C_28  and  C_33
REMARK                            x       y       z     vdW  Elec       q    Type
REMARK                         _______ _______ _______ _____ _____    ______ ____
ROOT
ATOM      1  C   UNL     1      29.389   4.011 -17.747  0.00  0.00    +0.126 A 
ATOM      2  N   UNL     1      29.615   3.821 -19.079  0.00  0.00    -0.245 NA
ATOM      3  C   UNL     1      29.911   5.071 -17.020  0.00  0.00    +0.033 A 
ATOM      4  C   UNL     1      30.394   4.750 -19.710  0.00  0.00    +0.063 A 
ATOM      5  C   UNL     1      30.749   5.969 -17.665  0.00  0.00    +0.008 A 
ATOM      6  C   UNL     1      31.014   5.812 -19.027  0.00  0.00    -0.023 A 
ATOM      7  C   UNL     1      30.556   4.625 -21.224  0.00  0.00    +0.163 C 
ATOM      8  C   UNL     1      31.869   6.831 -19.743  0.00  0.00    +0.056 C 
ATOM      9  N   UNL     1      31.071   5.844 -21.845  0.00  0.00    -0.289 N 
ATOM     10  C   UNL     1      32.217   6.427 -21.175  0.00  0.00    +0.113 C 
ATOM     11  C   UNL     1      30.705   6.142 -23.172  0.00  0.00    +0.283 C 
ATOM     12  O   UNL     1      30.115   5.307 -23.839  0.00  0.00    -0.267 OA
ENDROOT
BRANCH  11  13
ATOM     13  C   UNL     1      30.909   7.532 -23.633  0.00  0.00    +0.194 A 
ATOM     14  O   UNL     1      30.951   7.596 -25.024  0.00  0.00    -0.450 OA
ATOM     15  C   UNL     1      31.900   8.446 -23.240  0.00  0.00    +0.008 A 
ATOM     16  C   UNL     1      32.280   7.725 -25.296  0.00  0.00    +0.136 A 
ATOM     17  C   UNL     1      32.946   8.187 -24.168  0.00  0.00    +0.024 A 
ATOM     18  C   UNL     1      31.895   9.641 -22.357  0.00  0.00    +0.048 C 
ATOM     19  C   UNL     1      32.888   7.451 -26.513  0.00  0.00    +0.047 A 
ATOM     20  C   UNL     1      34.316   8.438 -24.245  0.00  0.00    +0.012 A 
ATOM     21  C   UNL     1      34.266   7.654 -26.551  0.00  0.00    +0.004 A 
ATOM     22  C   UNL     1      34.972   8.134 -25.444  0.00  0.00    +0.001 A 
ENDBRANCH  11  13
BRANCH   1  24
ATOM     23  O   UNL     1      28.793   1.799 -17.119  0.00  0.00    -0.269 OA
ATOM     24  C   UNL     1      28.542   3.008 -17.022  0.00  0.00    +0.263 C 
ATOM     25  N   UNL     1      27.499   3.500 -16.272  0.00  0.00    -0.306 N 
ATOM     26  H   UNL     1      27.370   4.473 -16.203  0.00  0.00    +0.149 HD
BRANCH  25  27
ATOM     27  C   UNL     1      26.586   2.614 -15.584  0.00  0.00    +0.140 C 
BRANCH  27  28
ATOM     28  C   UNL     1      25.301   2.384 -16.340  0.00  0.00    -0.030 A 
ATOM     29  C   UNL     1      25.308   2.004 -17.687  0.00  0.00    +0.007 A 
ATOM     30  C   UNL     1      24.068   2.475 -15.690  0.00  0.00    +0.007 A 
ATOM     31  C   UNL     1      24.095   1.751 -18.362  0.00  0.00    +0.023 A 
ATOM     32  C   UNL     1      22.875   2.242 -16.381  0.00  0.00    +0.023 A 
ATOM     33  C   UNL     1      22.864   1.861 -17.727  0.00  0.00    +0.030 A 
BRANCH  33  34
ATOM     34  N   UNL     1      21.684   1.590 -18.382  0.00  0.00    -0.333 N 
ATOM     35  C   UNL     1      21.398   2.134 -19.711  0.00  0.00    +0.086 C 
ATOM     36  C   UNL     1      20.594   0.848 -17.740  0.00  0.00    +0.086 C 
ATOM     37  C   UNL     1      20.070   2.918 -19.703  0.00  0.00    -0.063 C 
ATOM     38  C   UNL     1      19.287   1.678 -17.796  0.00  0.00    -0.063 C 
ATOM     39  N   UNL     1      18.930   2.150 -19.153  0.00  0.00    +0.381 N 
ATOM     40  H   UNL     1      18.735   1.349 -19.754  0.00  0.00    -0.086 HD
ATOM     41  H   UNL     1      18.101   2.741 -19.109  0.00  0.00    -0.086 HD
ENDBRANCH  33  34
ENDBRANCH  27  28
ENDBRANCH  25  27
ENDBRANCH   1  24
TORSDOF 5
ENDMDL
MODEL 5
REMARK VINA RESULT:   -11.063      4.347     13.266
REMARK INTER + INTRA:         -15.263
REMARK INTER:                 -14.932
REMARK INTRA:                  -0.331
REMARK UNBOUND:                -0.966
REMARK  Name = CTX-1020685
REMARK  6 active torsions:
REMARK  status: ('A' for Active; 'I' for Inactive)
REMARK    1  A    between atoms: C_2  and  C_4
REMARK    2  A    between atoms: N_3  and  C_5
REMARK    3  A    between atoms: C_5  and  C_8
REMARK    4  A    between atoms: C_19  and  N_22
REMARK    5  A    between atoms: C_21  and  C_24
REMARK    6  A    between atoms: C_28  and  C_33
REMARK                            x       y       z     vdW  Elec       q    Type
REMARK                         _______ _______ _______ _____ _____    ______ ____
ROOT
ATOM      1  C   UNL     1      29.085   3.741 -17.872  0.00  0.00    +0.126 A 
ATOM      2  N   UNL     1      29.402   3.597 -19.192  0.00  0.00    -0.245 NA
ATOM      3  C   UNL     1      29.524   4.796 -17.085  0.00  0.00    +0.033 A 
ATOM      4  C   UNL     1      30.188   4.569 -19.746  0.00  0.00    +0.063 A 
ATOM      5  C   UNL     1      30.370   5.739 -17.650  0.00  0.00    +0.008 A 
ATOM      6  C   UNL     1      30.727   5.630 -18.997  0.00  0.00    -0.023 A 
ATOM      7  C   UNL     1      30.450   4.492 -21.249  0.00  0.00    +0.163 C 
ATOM      8  C   UNL     1      31.591   6.696 -19.628  0.00  0.00    +0.056 C 
ATOM      9  N   UNL     1      30.962   5.745 -21.803  0.00  0.00    -0.289 N 
ATOM     10  C   UNL     1      32.042   6.345 -21.045  0.00  0.00    +0.113 C 
ATOM     11  C   UNL     1      30.671   6.069 -23.142  0.00  0.00    +0.283 C 
ATOM     12  O   UNL     1      30.153   5.235 -23.868  0.00  0.00    -0.267 OA
ENDROOT
BRANCH  11  13
ATOM     13  C   UNL     1      30.857   7.478 -23.552  0.00  0.00    +0.194 A 
ATOM     14  O   UNL     1      30.881   7.595 -24.940  0.00  0.00    -0.450 OA
ATOM     15  C   UNL     1      31.844   8.386 -23.136  0.00  0.00    +0.008 A 
ATOM     16  C   UNL     1      32.205   7.748 -25.223  0.00  0.00    +0.136 A 
ATOM     17  C   UNL     1      32.881   8.172 -24.086  0.00  0.00    +0.024 A 
ATOM     18  C   UNL     1      31.840   9.545 -22.208  0.00  0.00    +0.048 C 
ATOM     19  C   UNL     1      32.801   7.527 -26.457  0.00  0.00    +0.047 A 
ATOM     20  C   UNL     1      34.248   8.439 -24.170  0.00  0.00    +0.012 A 
ATOM     21  C   UNL     1      34.176   7.744 -26.504  0.00  0.00    +0.004 A 
ATOM     22  C   UNL     1      34.892   8.187 -25.387  0.00  0.00    +0.001 A 
ENDBRANCH  11  13
BRANCH   1  24
ATOM     23  O   UNL     1      27.947   1.657 -17.850  0.00  0.00    -0.269 OA
ATOM     24  C   UNL     1      28.229   2.691 -17.231  0.00  0.00    +0.263 C 
ATOM     25  N   UNL     1      27.784   2.946 -15.953  0.00  0.00    -0.306 N 
ATOM     26  H   UNL     1      28.070   3.770 -15.497  0.00  0.00    +0.149 HD
BRANCH  25  27
ATOM     27  C   UNL     1      26.903   2.026 -15.268  0.00  0.00    +0.140 C 
BRANCH  27  28
ATOM     28  C   UNL     1      25.467   2.489 -15.242  0.00  0.00    -0.030 A 
ATOM     29  C   UNL     1      24.899   3.155 -16.335  0.00  0.00    +0.007 A 
ATOM     30  C   UNL     1      24.647   2.200 -14.150  0.00  0.00    +0.007 A 
ATOM     31  C   UNL     1      23.542   3.540 -16.306  0.00  0.00    +0.023 A 
ATOM     32  C   UNL     1      23.310   2.608 -14.130  0.00  0.00    +0.023 A 
ATOM     33  C   UNL     1      22.726   3.274 -15.213  0.00  0.00    +0.030 A 
BRANCH  33  34
ATOM     34  N   UNL     1      21.396   3.629 -15.199  0.00  0.00    -0.333 N 
ATOM     35  C   UNL     1      20.800   4.342 -14.066  0.00  0.00    +0.086 C 
ATOM     36  C   UNL     1      20.469   3.206 -16.254  0.00  0.00    +0.086 C 
ATOM     37  C   UNL     1      19.585   3.569 -13.515  0.00  0.00    -0.063 C 
ATOM     38  C   UNL     1      19.260   2.467 -15.628  0.00  0.00    -0.063 C 
ATOM     39  N   UNL     1      18.584   3.221 -14.548  0.00  0.00    +0.381 N 
ATOM     40  H   UNL     1      18.175   4.074 -14.931  0.00  0.00    -0.086 HD
ATOM     41  H   UNL     1      17.843   2.654 -14.138  0.00  0.00    -0.086 HD
ENDBRANCH  33  34
ENDBRANCH  27  28
ENDBRANCH  25  27
ENDBRANCH   1  24
TORSDOF 5
ENDMDL
