MODEL 1
REMARK VINA RESULT:   -12.698      0.000      0.000
REMARK INTER + INTRA:         -16.364
REMARK INTER:                 -16.410
REMARK INTRA:                   0.046
REMARK UNBOUND:                 0.046
REMARK  Name = CTX-1020555
REMARK  6 active torsions:
REMARK  status: ('A' for Active; 'I' for Inactive)
REMARK    1  A    between atoms: C_10  and  C_11
REMARK    2  A    between atoms: C_21  and  C_22
REMARK    3  A    between atoms: N_24  and  C_25
REMARK    4  A    between atoms: C_25  and  C_26
REMARK    5  A    between atoms: C_31  and  N_32
REMARK    6  A    between atoms: N_37  and  C_38
REMARK                            x       y       z     vdW  Elec       q    Type
REMARK                         _______ _______ _______ _____ _____    ______ ____
ROOT
ATOM      1  C   UNL     1      24.578   1.722 -21.917  0.00  0.00    +0.250 C 
ATOM      2  O   UNL     1      24.630   1.834 -20.672  0.00  0.00    -0.270 OA
ATOM      3  N   UNL     1      25.705   2.413 -22.838  0.00  0.00    -0.293 N 
ATOM      4  C   UNL     1      26.351   3.762 -23.899  0.00  0.00    +0.144 C 
ATOM      5  C   UNL     1      26.571   2.391 -21.742  0.00  0.00    +0.113 C 
ATOM      6  C   UNL     1      27.850   4.785 -23.566  0.00  0.00    -0.019 A 
ATOM      7  C   UNL     1      27.848   2.795 -22.189  0.00  0.00    +0.062 C 
ATOM      8  C   UNL     1      28.526   3.874 -22.768  0.00  0.00    -0.003 A 
ATOM      9  C   UNL     1      29.151   5.656 -23.246  0.00  0.00    +0.026 A 
ATOM     10  S   UNL     1      30.008   3.825 -22.009  0.00  0.00    -0.088 S 
ATOM     11  C   UNL     1      29.872   5.502 -22.003  0.00  0.00    +0.074 A 
ENDROOT
BRANCH   1  21
ATOM     12 CL   UNL     1      21.222  -3.863 -19.328  0.00  0.00    -0.082 Cl
ATOM     13  C   UNL     1      21.929  -2.554 -20.213  0.00  0.00    +0.059 A 
ATOM     14  C   UNL     1      22.093  -2.566 -21.544  0.00  0.00    +0.133 A 
ATOM     15  C   UNL     1      22.311  -1.385 -19.440  0.00  0.00    +0.023 A 
ATOM     16  N   UNL     1      22.664  -1.471 -22.141  0.00  0.00    -0.238 N 
ATOM     17  C   UNL     1      22.906  -0.340 -20.025  0.00  0.00    +0.030 A 
ATOM     18  N   UNL     1      22.915  -1.284 -23.462  0.00  0.00    -0.174 NA
ATOM     19  C   UNL     1      23.098  -0.357 -21.411  0.00  0.00    +0.079 A 
ATOM     20  C   UNL     1      23.553  -0.107 -23.512  0.00  0.00    +0.148 A 
ATOM     21  C   UNL     1      23.772   0.506 -22.215  0.00  0.00    +0.082 A 
ENDBRANCH   1  21
BRANCH  11  22
ATOM     22  C   UNL     1      30.770   6.079 -20.997  0.00  0.00    +0.251 C 
ATOM     23  O   UNL     1      31.021   5.614 -19.887  0.00  0.00    -0.270 OA
ATOM     24  N   UNL     1      31.211   7.372 -21.319  0.00  0.00    -0.307 N 
ATOM     25  H   UNL     1      31.769   7.859 -20.670  0.00  0.00    +0.149 HD
BRANCH  24  26
ATOM     26  C   UNL     1      30.874   8.020 -22.574  0.00  0.00    +0.139 C 
BRANCH  26  27
ATOM     27  C   UNL     1      31.983   7.997 -23.547  0.00  0.00    -0.030 A 
ATOM     28  C   UNL     1      33.288   8.162 -23.095  0.00  0.00    +0.007 A 
ATOM     29  C   UNL     1      31.704   7.781 -24.889  0.00  0.00    +0.007 A 
ATOM     30  C   UNL     1      34.306   8.250 -24.020  0.00  0.00    +0.023 A 
ATOM     31  C   UNL     1      32.744   7.791 -25.791  0.00  0.00    +0.023 A 
ATOM     32  C   UNL     1      34.049   8.103 -25.392  0.00  0.00    +0.030 A 
BRANCH  32  33
ATOM     33  N   UNL     1      35.022   8.352 -26.325  0.00  0.00    -0.333 N 
ATOM     34  C   UNL     1      34.691   8.490 -27.742  0.00  0.00    +0.086 C 
ATOM     35  C   UNL     1      36.344   8.869 -25.946  0.00  0.00    +0.086 C 
ATOM     36  C   UNL     1      35.799   7.831 -28.574  0.00  0.00    -0.060 C 
ATOM     37  C   UNL     1      37.421   8.249 -26.852  0.00  0.00    -0.060 C 
ATOM     38  N   UNL     1      37.109   8.453 -28.283  0.00  0.00    +0.380 N 
ATOM     39  C   UNL     1      38.146   7.891 -29.128  0.00  0.00    -0.096 C 
ATOM     40  H   UNL     1      37.066   9.453 -28.481  0.00  0.00    -0.082 HD
ENDBRANCH  32  33
ENDBRANCH  26  27
ENDBRANCH  24  26
ENDBRANCH  11  22
TORSDOF 5
ENDMDL
MODEL 2
REMARK VINA RESULT:   -12.411      2.907      4.196
REMARK INTER + INTRA:         -15.993
REMARK INTER:                 -15.531
REMARK INTRA:                  -0.462
REMARK UNBOUND:                 0.046
REMARK  Name = CTX-1020555
REMARK  6 active torsions:
REMARK  status: ('A' for Active; 'I' for Inactive)
REMARK    1  A    between atoms: C_10  and  C_11
REMARK    2  A    between atoms: C_21  and  C_22
REMARK    3  A    between atoms: N_24  and  C_25
REMARK    4  A    between atoms: C_25  and  C_26
REMARK    5  A    between atoms: C_31  and  N_32
REMARK    6  A    between atoms: N_37  and  C_38
REMARK                            x       y       z     vdW  Elec       q    Type
REMARK                         _______ _______ _______ _____ _____    ______ ____
ROOT
ATOM      1  C   UNL     1      23.944   0.873 -19.613  0.00  0.00    +0.250 C 
ATOM      2  O   UNL     1      23.492   1.919 -20.130  0.00  0.00    -0.270 OA
ATOM      3  N   UNL     1      25.239   0.940 -18.657  0.00  0.00    -0.293 N 
ATOM      4  C   UNL     1      27.037   0.796 -18.322  0.00  0.00    +0.144 C 
ATOM      5  C   UNL     1      24.947   2.283 -18.406  0.00  0.00    +0.113 C 
ATOM      6  C   UNL     1      28.145   2.149 -17.734  0.00  0.00    -0.019 A 
ATOM      7  C   UNL     1      25.822   2.736 -17.395  0.00  0.00    +0.062 C 
ATOM      8  C   UNL     1      27.179   2.925 -17.110  0.00  0.00    -0.003 A 
ATOM      9  C   UNL     1      29.078   3.343 -17.226  0.00  0.00    +0.026 A 
ATOM     10  S   UNL     1      27.174   4.334 -16.222  0.00  0.00    -0.088 S 
ATOM     11  C   UNL     1      28.570   4.689 -17.091  0.00  0.00    +0.074 A 
ENDROOT
BRANCH   1  21
ATOM     12 CL   UNL     1      21.226  -4.980 -22.354  0.00  0.00    -0.082 Cl
ATOM     13  C   UNL     1      21.697  -3.563 -21.478  0.00  0.00    +0.059 A 
ATOM     14  C   UNL     1      20.873  -2.891 -20.662  0.00  0.00    +0.133 A 
ATOM     15  C   UNL     1      23.078  -3.139 -21.633  0.00  0.00    +0.023 A 
ATOM     16  N   UNL     1      21.356  -1.781 -20.016  0.00  0.00    -0.238 N 
ATOM     17  C   UNL     1      23.527  -2.032 -21.034  0.00  0.00    +0.030 A 
ATOM     18  N   UNL     1      20.691  -0.970 -19.154  0.00  0.00    -0.174 NA
ATOM     19  C   UNL     1      22.664  -1.316 -20.196  0.00  0.00    +0.079 A 
ATOM     20  C   UNL     1      21.568   0.005 -18.879  0.00  0.00    +0.148 A 
ATOM     21  C   UNL     1      22.833  -0.117 -19.580  0.00  0.00    +0.082 A 
ENDBRANCH   1  21
BRANCH  11  22
ATOM     22  C   UNL     1      28.839   6.131 -17.050  0.00  0.00    +0.251 C 
ATOM     23  O   UNL     1      28.276   6.960 -16.338  0.00  0.00    -0.270 OA
ATOM     24  N   UNL     1      29.701   6.566 -18.069  0.00  0.00    -0.307 N 
ATOM     25  H   UNL     1      29.887   7.530 -18.153  0.00  0.00    +0.149 HD
BRANCH  24  26
ATOM     26  C   UNL     1      30.327   5.650 -19.005  0.00  0.00    +0.139 C 
BRANCH  26  27
ATOM     27  C   UNL     1      30.888   6.331 -20.187  0.00  0.00    -0.030 A 
ATOM     28  C   UNL     1      30.046   6.669 -21.240  0.00  0.00    +0.007 A 
ATOM     29  C   UNL     1      32.239   6.648 -20.210  0.00  0.00    +0.007 A 
ATOM     30  C   UNL     1      30.595   7.205 -22.386  0.00  0.00    +0.023 A 
ATOM     31  C   UNL     1      32.757   7.258 -21.330  0.00  0.00    +0.023 A 
ATOM     32  C   UNL     1      31.970   7.476 -22.467  0.00  0.00    +0.030 A 
BRANCH  32  33
ATOM     33  N   UNL     1      32.548   7.852 -23.652  0.00  0.00    -0.333 N 
ATOM     34  C   UNL     1      31.765   7.922 -24.885  0.00  0.00    +0.086 C 
ATOM     35  C   UNL     1      33.833   8.562 -23.697  0.00  0.00    +0.086 C 
ATOM     36  C   UNL     1      32.631   7.421 -26.048  0.00  0.00    -0.060 C 
ATOM     37  C   UNL     1      34.641   8.095 -24.919  0.00  0.00    -0.060 C 
ATOM     38  N   UNL     1      33.862   8.232 -26.168  0.00  0.00    +0.380 N 
ATOM     39  C   UNL     1      34.644   7.817 -27.318  0.00  0.00    -0.096 C 
ATOM     40  H   UNL     1      33.616   9.212 -26.308  0.00  0.00    -0.082 HD
ENDBRANCH  32  33
ENDBRANCH  26  27
ENDBRANCH  24  26
ENDBRANCH  11  22
TORSDOF 5
ENDMDL
MODEL 3
REMARK VINA RESULT:   -12.267      4.537     10.778
REMARK INTER + INTRA:         -15.807
REMARK INTER:                 -14.833
REMARK INTRA:                  -0.974
REMARK UNBOUND:                 0.046
REMARK  Name = CTX-1020555
REMARK  6 active torsions:
REMARK  status: ('A' for Active; 'I' for Inactive)
REMARK    1  A    between atoms: C_10  and  C_11
REMARK    2  A    between atoms: C_21  and  C_22
REMARK    3  A    between atoms: N_24  and  C_25
REMARK    4  A    between atoms: C_25  and  C_26
REMARK    5  A    between atoms: C_31  and  N_32
REMARK    6  A    between atoms: N_37  and  C_38
REMARK                            x       y       z     vdW  Elec       q    Type
REMARK                         _______ _______ _______ _____ _____    ______ ____
ROOT
ATOM      1  C   UNL     1      30.576   6.618 -21.037  0.00  0.00    +0.250 C 
ATOM      2  O   UNL     1      30.286   5.692 -21.827  0.00  0.00    -0.270 OA
ATOM      3  N   UNL     1      30.263   6.464 -19.464  0.00  0.00    -0.293 N 
ATOM      4  C   UNL     1      29.243   6.731 -17.964  0.00  0.00    +0.144 C 
ATOM      5  C   UNL     1      30.283   5.077 -19.627  0.00  0.00    +0.113 C 
ATOM      6  C   UNL     1      28.487   5.414 -16.915  0.00  0.00    -0.019 A 
ATOM      7  C   UNL     1      30.205   4.489 -18.345  0.00  0.00    +0.062 C 
ATOM      8  C   UNL     1      29.378   4.396 -17.220  0.00  0.00    -0.003 A 
ATOM      9  C   UNL     1      27.843   4.251 -16.029  0.00  0.00    +0.026 A 
ATOM     10  S   UNL     1      29.593   2.817 -16.736  0.00  0.00    -0.088 S 
ATOM     11  C   UNL     1      27.941   2.864 -16.424  0.00  0.00    +0.074 A 
ENDROOT
BRANCH   1  21
ATOM     12 CL   UNL     1      33.926   8.227 -26.983  0.00  0.00    -0.082 Cl
ATOM     13  C   UNL     1      33.242   8.048 -25.403  0.00  0.00    +0.059 A 
ATOM     14  C   UNL     1      33.826   8.507 -24.288  0.00  0.00    +0.133 A 
ATOM     15  C   UNL     1      31.944   7.396 -25.332  0.00  0.00    +0.023 A 
ATOM     16  N   UNL     1      33.191   8.310 -23.088  0.00  0.00    -0.238 N 
ATOM     17  C   UNL     1      31.353   7.171 -24.155  0.00  0.00    +0.030 A 
ATOM     18  N   UNL     1      33.609   8.696 -21.856  0.00  0.00    -0.174 NA
ATOM     19  C   UNL     1      31.970   7.631 -22.986  0.00  0.00    +0.079 A 
ATOM     20  C   UNL     1      32.688   8.193 -21.024  0.00  0.00    +0.148 A 
ATOM     21  C   UNL     1      31.645   7.428 -21.683  0.00  0.00    +0.082 A 
ENDBRANCH   1  21
BRANCH  11  22
ATOM     22  C   UNL     1      27.401   1.502 -16.356  0.00  0.00    +0.251 C 
ATOM     23  O   UNL     1      27.920   0.535 -15.802  0.00  0.00    -0.270 OA
ATOM     24  N   UNL     1      26.275   1.307 -17.173  0.00  0.00    -0.307 N 
ATOM     25  H   UNL     1      25.885   0.405 -17.236  0.00  0.00    +0.149 HD
BRANCH  24  26
ATOM     26  C   UNL     1      25.666   2.386 -17.930  0.00  0.00    +0.139 C 
BRANCH  26  27
ATOM     27  C   UNL     1      25.862   2.248 -19.385  0.00  0.00    -0.030 A 
ATOM     28  C   UNL     1      27.155   2.185 -19.894  0.00  0.00    +0.007 A 
ATOM     29  C   UNL     1      24.753   2.153 -20.214  0.00  0.00    +0.007 A 
ATOM     30  C   UNL     1      27.332   2.167 -21.262  0.00  0.00    +0.023 A 
ATOM     31  C   UNL     1      24.948   2.053 -21.573  0.00  0.00    +0.023 A 
ATOM     32  C   UNL     1      26.230   2.139 -22.130  0.00  0.00    +0.030 A 
BRANCH  32  33
ATOM     33  N   UNL     1      26.392   2.287 -23.484  0.00  0.00    -0.333 N 
ATOM     34  C   UNL     1      26.948   3.516 -24.047  0.00  0.00    +0.086 C 
ATOM     35  C   UNL     1      26.396   1.134 -24.394  0.00  0.00    +0.086 C 
ATOM     36  C   UNL     1      26.206   3.841 -25.350  0.00  0.00    -0.060 C 
ATOM     37  C   UNL     1      25.716   1.519 -25.719  0.00  0.00    -0.060 C 
ATOM     38  N   UNL     1      26.330   2.726 -26.313  0.00  0.00    +0.380 N 
ATOM     39  C   UNL     1      25.702   3.062 -27.577  0.00  0.00    -0.096 C 
ATOM     40  H   UNL     1      27.316   2.545 -26.504  0.00  0.00    -0.082 HD
ENDBRANCH  32  33
ENDBRANCH  26  27
ENDBRANCH  24  26
ENDBRANCH  11  22
TORSDOF 5
ENDMDL
MODEL 4
REMARK VINA RESULT:   -12.042      4.483      7.135
REMARK INTER + INTRA:         -15.517
REMARK INTER:                 -15.954
REMARK INTRA:                   0.437
REMARK UNBOUND:                 0.046
REMARK  Name = CTX-1020555
REMARK  6 active torsions:
REMARK  status: ('A' for Active; 'I' for Inactive)
REMARK    1  A    between atoms: C_10  and  C_11
REMARK    2  A    between atoms: C_21  and  C_22
REMARK    3  A    between atoms: N_24  and  C_25
REMARK    4  A    between atoms: C_25  and  C_26
REMARK    5  A    between atoms: C_31  and  N_32
REMARK    6  A    between atoms: N_37  and  C_38
REMARK                            x       y       z     vdW  Elec       q    Type
REMARK                         _______ _______ _______ _____ _____    ______ ____
ROOT
ATOM      1  C   UNL     1      19.965   1.690 -18.484  0.00  0.00    +0.250 C 
ATOM      2  O   UNL     1      19.513   2.451 -19.369  0.00  0.00    -0.270 OA
ATOM      3  N   UNL     1      21.378   0.948 -18.702  0.00  0.00    -0.293 N 
ATOM      4  C   UNL     1      22.418  -0.484 -19.180  0.00  0.00    +0.144 C 
ATOM      5  C   UNL     1      21.729   1.950 -19.611  0.00  0.00    +0.113 C 
ATOM      6  C   UNL     1      23.671  -0.515 -20.534  0.00  0.00    -0.019 A 
ATOM      7  C   UNL     1      23.084   1.762 -19.961  0.00  0.00    +0.062 C 
ATOM      8  C   UNL     1      23.955   0.843 -20.558  0.00  0.00    -0.003 A 
ATOM      9  C   UNL     1      24.747  -0.509 -21.715  0.00  0.00    +0.026 A 
ATOM     10  S   UNL     1      25.004   1.826 -21.399  0.00  0.00    -0.088 S 
ATOM     11  C   UNL     1      24.904   0.636 -22.583  0.00  0.00    +0.074 A 
ENDROOT
BRANCH   1  21
ATOM     12 CL   UNL     1      20.773   4.821 -12.262  0.00  0.00    -0.082 Cl
ATOM     13  C   UNL     1      20.297   4.044 -13.734  0.00  0.00    +0.059 A 
ATOM     14  C   UNL     1      19.159   3.350 -13.869  0.00  0.00    +0.133 A 
ATOM     15  C   UNL     1      21.188   4.215 -14.870  0.00  0.00    +0.023 A 
ATOM     16  N   UNL     1      18.882   2.778 -15.085  0.00  0.00    -0.238 N 
ATOM     17  C   UNL     1      20.931   3.618 -16.038  0.00  0.00    +0.030 A 
ATOM     18  N   UNL     1      17.793   2.044 -15.426  0.00  0.00    -0.174 NA
ATOM     19  C   UNL     1      19.753   2.875 -16.177  0.00  0.00    +0.079 A 
ATOM     20  C   UNL     1      18.043   1.649 -16.681  0.00  0.00    +0.148 A 
ATOM     21  C   UNL     1      19.328   2.086 -17.198  0.00  0.00    +0.082 A 
ENDBRANCH   1  21
BRANCH  11  22
ATOM     22  C   UNL     1      25.330   1.175 -23.879  0.00  0.00    +0.251 C 
ATOM     23  O   UNL     1      24.786   0.988 -24.965  0.00  0.00    -0.270 OA
ATOM     24  N   UNL     1      26.585   1.804 -23.836  0.00  0.00    -0.307 N 
ATOM     25  H   UNL     1      26.976   2.141 -24.674  0.00  0.00    +0.149 HD
BRANCH  24  26
ATOM     26  C   UNL     1      27.328   1.976 -22.600  0.00  0.00    +0.139 C 
BRANCH  26  27
ATOM     27  C   UNL     1      28.201   3.164 -22.616  0.00  0.00    -0.030 A 
ATOM     28  C   UNL     1      27.871   4.240 -23.433  0.00  0.00    +0.007 A 
ATOM     29  C   UNL     1      29.317   3.198 -21.793  0.00  0.00    +0.007 A 
ATOM     30  C   UNL     1      28.749   5.299 -23.526  0.00  0.00    +0.023 A 
ATOM     31  C   UNL     1      30.141   4.300 -21.837  0.00  0.00    +0.023 A 
ATOM     32  C   UNL     1      29.922   5.333 -22.757  0.00  0.00    +0.030 A 
BRANCH  32  33
ATOM     33  N   UNL     1      30.876   6.296 -22.963  0.00  0.00    -0.333 N 
ATOM     34  C   UNL     1      30.684   7.347 -23.961  0.00  0.00    +0.086 C 
ATOM     35  C   UNL     1      31.928   6.569 -21.975  0.00  0.00    +0.086 C 
ATOM     36  C   UNL     1      32.027   7.625 -24.649  0.00  0.00    -0.060 C 
ATOM     37  C   UNL     1      33.238   6.922 -22.698  0.00  0.00    -0.060 C 
ATOM     38  N   UNL     1      33.046   8.030 -23.657  0.00  0.00    +0.380 N 
ATOM     39  C   UNL     1      34.294   8.376 -24.311  0.00  0.00    -0.096 C 
ATOM     40  H   UNL     1      32.727   8.860 -23.156  0.00  0.00    -0.082 HD
ENDBRANCH  32  33
ENDBRANCH  26  27
ENDBRANCH  24  26
ENDBRANCH  11  22
TORSDOF 5
ENDMDL
MODEL 5
REMARK VINA RESULT:   -11.991      5.611      9.328
REMARK INTER + INTRA:         -15.450
REMARK INTER:                 -14.887
REMARK INTRA:                  -0.563
REMARK UNBOUND:                 0.046
REMARK  Name = CTX-1020555
REMARK  6 active torsions:
REMARK  status: ('A' for Active; 'I' for Inactive)
REMARK    1  A    between atoms: C_10  and  C_11
REMARK    2  A    between atoms: C_21  and  C_22
REMARK    3  A    between atoms: N_24  and  C_25
REMARK    4  A    between atoms: C_25  and  C_26
REMARK    5  A    between atoms: C_31  and  N_32
REMARK    6  A    between atoms: N_37  and  C_38
REMARK                            x       y       z     vdW  Elec       q    Type
REMARK                         _______ _______ _______ _____ _____    ______ ____
ROOT
ATOM      1  C   UNL     1      23.780  -0.029 -20.495  0.00  0.00    +0.250 C 
ATOM      2  O   UNL     1      24.953   0.030 -20.066  0.00  0.00    -0.270 OA
ATOM      3  N   UNL     1      22.559   0.488 -19.579  0.00  0.00    -0.293 N 
ATOM      4  C   UNL     1      21.174   0.237 -18.404  0.00  0.00    +0.144 C 
ATOM      5  C   UNL     1      23.463   1.294 -18.883  0.00  0.00    +0.113 C 
ATOM      6  C   UNL     1      21.038   0.963 -16.713  0.00  0.00    -0.019 A 
ATOM      7  C   UNL     1      22.722   2.120 -18.009  0.00  0.00    +0.062 C 
ATOM      8  C   UNL     1      21.846   2.071 -16.919  0.00  0.00    -0.003 A 
ATOM      9  C   UNL     1      20.952   1.604 -15.252  0.00  0.00    +0.026 A 
ATOM     10  S   UNL     1      22.314   3.388 -16.013  0.00  0.00    -0.088 S 
ATOM     11  C   UNL     1      22.048   2.369 -14.701  0.00  0.00    +0.074 A 
ENDROOT
BRANCH   1  21
ATOM     12 CL   UNL     1      26.518   2.802 -26.296  0.00  0.00    -0.082 Cl
ATOM     13  C   UNL     1      25.747   1.899 -25.036  0.00  0.00    +0.059 A 
ATOM     14  C   UNL     1      24.745   1.036 -25.253  0.00  0.00    +0.133 A 
ATOM     15  C   UNL     1      26.274   2.085 -23.695  0.00  0.00    +0.023 A 
ATOM     16  N   UNL     1      24.210   0.372 -24.177  0.00  0.00    -0.238 N 
ATOM     17  C   UNL     1      25.719   1.467 -22.648  0.00  0.00    +0.030 A 
ATOM     18  N   UNL     1      23.201  -0.536 -24.183  0.00  0.00    -0.174 NA
ATOM     19  C   UNL     1      24.658   0.580 -22.867  0.00  0.00    +0.079 A 
ATOM     20  C   UNL     1      23.002  -0.813 -22.887  0.00  0.00    +0.148 A 
ATOM     21  C   UNL     1      23.857  -0.067 -21.981  0.00  0.00    +0.082 A 
ENDBRANCH   1  21
BRANCH  11  22
ATOM     22  C   UNL     1      22.752   2.874 -13.517  0.00  0.00    +0.251 C 
ATOM     23  O   UNL     1      22.271   3.560 -12.618  0.00  0.00    -0.270 OA
ATOM     24  N   UNL     1      24.141   2.675 -13.568  0.00  0.00    -0.307 N 
ATOM     25  H   UNL     1      24.699   3.038 -12.842  0.00  0.00    +0.149 HD
BRANCH  24  26
ATOM     26  C   UNL     1      24.786   1.955 -14.651  0.00  0.00    +0.139 C 
BRANCH  26  27
ATOM     27  C   UNL     1      25.930   2.688 -15.226  0.00  0.00    -0.030 A 
ATOM     28  C   UNL     1      25.763   4.014 -15.610  0.00  0.00    +0.007 A 
ATOM     29  C   UNL     1      27.156   2.049 -15.343  0.00  0.00    +0.007 A 
ATOM     30  C   UNL     1      26.803   4.657 -16.248  0.00  0.00    +0.023 A 
ATOM     31  C   UNL     1      28.208   2.733 -15.908  0.00  0.00    +0.023 A 
ATOM     32  C   UNL     1      28.036   4.016 -16.443  0.00  0.00    +0.030 A 
BRANCH  32  33
ATOM     33  N   UNL     1      29.015   4.584 -17.217  0.00  0.00    -0.333 N 
ATOM     34  C   UNL     1      29.527   5.922 -16.923  0.00  0.00    +0.086 C 
ATOM     35  C   UNL     1      29.863   3.781 -18.108  0.00  0.00    +0.086 C 
ATOM     36  C   UNL     1      29.782   6.654 -18.247  0.00  0.00    -0.060 C 
ATOM     37  C   UNL     1      30.166   4.576 -19.389  0.00  0.00    -0.060 C 
ATOM     38  N   UNL     1      30.744   5.901 -19.082  0.00  0.00    +0.380 N 
ATOM     39  C   UNL     1      31.053   6.630 -20.297  0.00  0.00    -0.096 C 
ATOM     40  H   UNL     1      31.618   5.778 -18.571  0.00  0.00    -0.082 HD
ENDBRANCH  32  33
ENDBRANCH  26  27
ENDBRANCH  24  26
ENDBRANCH  11  22
TORSDOF 5
ENDMDL
