MODEL 1
REMARK VINA RESULT:   -10.911      0.000      0.000
REMARK INTER + INTRA:         -14.067
REMARK INTER:                 -13.462
REMARK INTRA:                  -0.605
REMARK UNBOUND:                -0.605
REMARK  Name = CTX-1020670
REMARK  4 active torsions:
REMARK  status: ('A' for Active; 'I' for Inactive)
REMARK    1  A    between atoms: C_3  and  C_6
REMARK    2  A    between atoms: C_21  and  C_22
REMARK    3  A    between atoms: N_24  and  C_25
REMARK    4  A    between atoms: C_25  and  C_26
REMARK                            x       y       z     vdW  Elec       q    Type
REMARK                         _______ _______ _______ _____ _____    ______ ____
ROOT
ATOM      1  C   UNL     1      20.427   0.039 -17.641  0.00  0.00    +0.255 C 
ATOM      2  O   UNL     1      19.781  -1.000 -17.454  0.00  0.00    -0.269 OA
ATOM      3  N   UNL     1      21.321   0.082 -18.744  0.00  0.00    -0.292 N 
ATOM      4  C   UNL     1      21.430   1.152 -19.802  0.00  0.00    +0.144 C 
ATOM      5  C   UNL     1      21.992  -1.212 -18.950  0.00  0.00    +0.113 C 
ATOM      6  C   UNL     1      22.545   0.846 -20.808  0.00  0.00    -0.019 A 
ATOM      7  C   UNL     1      22.367  -1.633 -20.364  0.00  0.00    +0.062 C 
ATOM      8  C   UNL     1      22.840  -0.465 -21.117  0.00  0.00    -0.003 A 
ATOM      9  C   UNL     1      23.502   1.696 -21.511  0.00  0.00    +0.026 A 
ATOM     10  S   UNL     1      23.912  -0.645 -22.417  0.00  0.00    -0.088 S 
ATOM     11  C   UNL     1      24.527   0.913 -22.047  0.00  0.00    +0.074 A 
ENDROOT
BRANCH   1  14
ATOM     12 CL   UNL     1      17.704   1.321 -16.334  0.00  0.00    -0.082 Cl
ATOM     13  C   UNL     1      19.365   1.664 -15.986  0.00  0.00    +0.068 A 
ATOM     14  C   UNL     1      20.466   1.043 -16.579  0.00  0.00    +0.093 A 
ATOM     15  C   UNL     1      19.710   2.639 -14.984  0.00  0.00    +0.008 A 
ATOM     16  S   UNL     1      21.909   1.717 -15.994  0.00  0.00    -0.082 S 
ATOM     17  C   UNL     1      21.100   2.765 -14.887  0.00  0.00    +0.021 A 
ATOM     18  C   UNL     1      18.910   3.442 -14.114  0.00  0.00    +0.010 A 
ATOM     19  C   UNL     1      21.693   3.651 -13.977  0.00  0.00    +0.016 A 
ATOM     20  C   UNL     1      19.505   4.310 -13.194  0.00  0.00    +0.001 A 
ATOM     21  C   UNL     1      20.887   4.415 -13.129  0.00  0.00    +0.001 A 
ENDBRANCH   1  14
BRANCH  11  22
ATOM     22  C   UNL     1      25.951   1.119 -22.236  0.00  0.00    +0.251 C 
ATOM     23  O   UNL     1      26.804   0.946 -21.365  0.00  0.00    -0.270 OA
ATOM     24  N   UNL     1      26.329   1.574 -23.493  0.00  0.00    -0.307 N 
ATOM     25  H   UNL     1      27.294   1.683 -23.657  0.00  0.00    +0.149 HD
BRANCH  24  26
ATOM     26  C   UNL     1      25.432   1.905 -24.591  0.00  0.00    +0.139 C 
BRANCH  26  27
ATOM     27  C   UNL     1      26.012   1.678 -25.958  0.00  0.00    -0.030 A 
ATOM     28  C   UNL     1      26.461   0.396 -26.310  0.00  0.00    +0.005 A 
ATOM     29  C   UNL     1      26.010   2.688 -26.928  0.00  0.00    +0.005 A 
ATOM     30  C   UNL     1      26.873   0.123 -27.614  0.00  0.00    +0.000 A 
ATOM     31  C   UNL     1      26.429   2.413 -28.232  0.00  0.00    +0.000 A 
ATOM     32  C   UNL     1      26.854   1.130 -28.575  0.00  0.00    +0.000 A 
ENDBRANCH  26  27
ENDBRANCH  24  26
ENDBRANCH  11  22
TORSDOF 4
ENDMDL
MODEL 2
REMARK VINA RESULT:   -10.676      3.124      5.306
REMARK INTER + INTRA:         -13.777
REMARK INTER:                 -12.820
REMARK INTRA:                  -0.957
REMARK UNBOUND:                -0.605
REMARK  Name = CTX-1020670
REMARK  4 active torsions:
REMARK  status: ('A' for Active; 'I' for Inactive)
REMARK    1  A    between atoms: C_3  and  C_6
REMARK    2  A    between atoms: C_21  and  C_22
REMARK    3  A    between atoms: N_24  and  C_25
REMARK    4  A    between atoms: C_25  and  C_26
REMARK                            x       y       z     vdW  Elec       q    Type
REMARK                         _______ _______ _______ _____ _____    ______ ____
ROOT
ATOM      1  C   UNL     1      20.488   0.291 -17.950  0.00  0.00    +0.255 C 
ATOM      2  O   UNL     1      19.820  -0.752 -17.950  0.00  0.00    -0.269 OA
ATOM      3  N   UNL     1      21.589   0.380 -18.842  0.00  0.00    -0.292 N 
ATOM      4  C   UNL     1      21.910   1.499 -19.802  0.00  0.00    +0.144 C 
ATOM      5  C   UNL     1      22.291  -0.907 -18.969  0.00  0.00    +0.113 C 
ATOM      6  C   UNL     1      23.208   1.234 -20.572  0.00  0.00    -0.019 A 
ATOM      7  C   UNL     1      22.950  -1.261 -20.295  0.00  0.00    +0.062 C 
ATOM      8  C   UNL     1      23.564  -0.063 -20.877  0.00  0.00    -0.003 A 
ATOM      9  C   UNL     1      24.287   2.111 -21.022  0.00  0.00    +0.026 A 
ATOM     10  S   UNL     1      24.880  -0.187 -21.937  0.00  0.00    -0.088 S 
ATOM     11  C   UNL     1      25.402   1.347 -21.373  0.00  0.00    +0.074 A 
ENDROOT
BRANCH   1  14
ATOM     12 CL   UNL     1      23.008   1.831 -16.521  0.00  0.00    -0.082 Cl
ATOM     13  C   UNL     1      21.315   1.920 -16.169  0.00  0.00    +0.068 A 
ATOM     14  C   UNL     1      20.305   1.242 -16.855  0.00  0.00    +0.093 A 
ATOM     15  C   UNL     1      20.837   2.775 -15.114  0.00  0.00    +0.008 A 
ATOM     16  S   UNL     1      18.795   1.564 -16.150  0.00  0.00    -0.082 S 
ATOM     17  C   UNL     1      19.447   2.671 -14.997  0.00  0.00    +0.021 A 
ATOM     18  C   UNL     1      21.511   3.668 -14.226  0.00  0.00    +0.010 A 
ATOM     19  C   UNL     1      18.736   3.409 -14.041  0.00  0.00    +0.016 A 
ATOM     20  C   UNL     1      20.797   4.417 -13.286  0.00  0.00    +0.001 A 
ATOM     21  C   UNL     1      19.418   4.286 -13.194  0.00  0.00    +0.001 A 
ENDBRANCH   1  14
BRANCH  11  22
ATOM     22  C   UNL     1      26.833   1.552 -21.256  0.00  0.00    +0.251 C 
ATOM     23  O   UNL     1      27.576   1.848 -22.193  0.00  0.00    -0.270 OA
ATOM     24  N   UNL     1      27.366   1.359 -19.987  0.00  0.00    -0.307 N 
ATOM     25  H   UNL     1      28.329   1.532 -19.875  0.00  0.00    +0.149 HD
BRANCH  24  26
ATOM     26  C   UNL     1      26.632   0.925 -18.807  0.00  0.00    +0.139 C 
BRANCH  26  27
ATOM     27  C   UNL     1      27.135   1.503 -17.515  0.00  0.00    -0.030 A 
ATOM     28  C   UNL     1      27.867   0.688 -16.637  0.00  0.00    +0.005 A 
ATOM     29  C   UNL     1      26.988   2.863 -17.218  0.00  0.00    +0.005 A 
ATOM     30  C   UNL     1      28.464   1.230 -15.500  0.00  0.00    +0.000 A 
ATOM     31  C   UNL     1      27.583   3.403 -16.075  0.00  0.00    +0.000 A 
ATOM     32  C   UNL     1      28.324   2.588 -15.220  0.00  0.00    +0.000 A 
ENDBRANCH  26  27
ENDBRANCH  24  26
ENDBRANCH  11  22
TORSDOF 4
ENDMDL
MODEL 3
REMARK VINA RESULT:   -10.440      5.625      8.678
REMARK INTER + INTRA:         -13.486
REMARK INTER:                 -12.446
REMARK INTRA:                  -1.040
REMARK UNBOUND:                -0.605
REMARK  Name = CTX-1020670
REMARK  4 active torsions:
REMARK  status: ('A' for Active; 'I' for Inactive)
REMARK    1  A    between atoms: C_3  and  C_6
REMARK    2  A    between atoms: C_21  and  C_22
REMARK    3  A    between atoms: N_24  and  C_25
REMARK    4  A    between atoms: C_25  and  C_26
REMARK                            x       y       z     vdW  Elec       q    Type
REMARK                         _______ _______ _______ _____ _____    ______ ____
ROOT
ATOM      1  C   UNL     1      24.829   1.520 -18.826  0.00  0.00    +0.255 C 
ATOM      2  O   UNL     1      23.687   1.672 -18.373  0.00  0.00    -0.269 OA
ATOM      3  N   UNL     1      25.928   1.712 -17.947  0.00  0.00    -0.292 N 
ATOM      4  C   UNL     1      27.103   0.793 -17.723  0.00  0.00    +0.144 C 
ATOM      5  C   UNL     1      25.683   2.817 -17.005  0.00  0.00    +0.113 C 
ATOM      6  C   UNL     1      28.097   1.375 -16.713  0.00  0.00    -0.019 A 
ATOM      7  C   UNL     1      26.288   2.746 -15.610  0.00  0.00    +0.062 C 
ATOM      8  C   UNL     1      27.634   2.168 -15.684  0.00  0.00    -0.003 A 
ATOM      9  C   UNL     1      29.556   1.346 -16.632  0.00  0.00    +0.026 A 
ATOM     10  S   UNL     1      28.803   2.531 -14.512  0.00  0.00    -0.088 S 
ATOM     11  C   UNL     1      29.999   2.307 -15.720  0.00  0.00    +0.074 A 
ENDROOT
BRANCH   1  14
ATOM     12 CL   UNL     1      22.773  -0.148 -20.763  0.00  0.00    -0.082 Cl
ATOM     13  C   UNL     1      24.204   0.737 -21.172  0.00  0.00    +0.068 A 
ATOM     14  C   UNL     1      25.007   1.444 -20.275  0.00  0.00    +0.093 A 
ATOM     15  C   UNL     1      24.639   0.820 -22.542  0.00  0.00    +0.008 A 
ATOM     16  S   UNL     1      26.340   2.117 -21.081  0.00  0.00    -0.082 S 
ATOM     17  C   UNL     1      25.821   1.563 -22.631  0.00  0.00    +0.021 A 
ATOM     18  C   UNL     1      24.087   0.307 -23.755  0.00  0.00    +0.010 A 
ATOM     19  C   UNL     1      26.449   1.793 -23.863  0.00  0.00    +0.016 A 
ATOM     20  C   UNL     1      24.705   0.554 -24.983  0.00  0.00    +0.001 A 
ATOM     21  C   UNL     1      25.880   1.291 -25.036  0.00  0.00    +0.001 A 
ENDBRANCH   1  14
BRANCH  11  22
ATOM     22  C   UNL     1      31.159   3.176 -15.666  0.00  0.00    +0.251 C 
ATOM     23  O   UNL     1      32.189   2.928 -15.038  0.00  0.00    -0.270 OA
ATOM     24  N   UNL     1      31.044   4.375 -16.359  0.00  0.00    -0.307 N 
ATOM     25  H   UNL     1      31.834   4.963 -16.370  0.00  0.00    +0.149 HD
BRANCH  24  26
ATOM     26  C   UNL     1      29.864   4.843 -17.072  0.00  0.00    +0.139 C 
BRANCH  26  27
ATOM     27  C   UNL     1      30.070   5.058 -18.544  0.00  0.00    -0.030 A 
ATOM     28  C   UNL     1      30.580   6.286 -18.994  0.00  0.00    +0.005 A 
ATOM     29  C   UNL     1      29.874   4.023 -19.466  0.00  0.00    +0.005 A 
ATOM     30  C   UNL     1      30.912   6.465 -20.336  0.00  0.00    +0.000 A 
ATOM     31  C   UNL     1      30.204   4.208 -20.811  0.00  0.00    +0.000 A 
ATOM     32  C   UNL     1      30.727   5.425 -21.244  0.00  0.00    +0.000 A 
ENDBRANCH  26  27
ENDBRANCH  24  26
ENDBRANCH  11  22
TORSDOF 4
ENDMDL
MODEL 4
REMARK VINA RESULT:   -10.000      3.011      9.986
REMARK INTER + INTRA:         -12.943
REMARK INTER:                 -12.183
REMARK INTRA:                  -0.759
REMARK UNBOUND:                -0.605
REMARK  Name = CTX-1020670
REMARK  4 active torsions:
REMARK  status: ('A' for Active; 'I' for Inactive)
REMARK    1  A    between atoms: C_3  and  C_6
REMARK    2  A    between atoms: C_21  and  C_22
REMARK    3  A    between atoms: N_24  and  C_25
REMARK    4  A    between atoms: C_25  and  C_26
REMARK                            x       y       z     vdW  Elec       q    Type
REMARK                         _______ _______ _______ _____ _____    ______ ____
ROOT
ATOM      1  C   UNL     1      23.746  -1.238 -21.423  0.00  0.00    +0.255 C 
ATOM      2  O   UNL     1      23.889  -2.353 -21.940  0.00  0.00    -0.269 OA
ATOM      3  N   UNL     1      22.671  -1.055 -20.513  0.00  0.00    -0.292 N 
ATOM      4  C   UNL     1      22.724  -0.452 -19.132  0.00  0.00    +0.144 C 
ATOM      5  C   UNL     1      21.471  -1.796 -20.935  0.00  0.00    +0.113 C 
ATOM      6  C   UNL     1      21.339  -0.403 -18.478  0.00  0.00    -0.019 A 
ATOM      7  C   UNL     1      20.532  -2.347 -19.871  0.00  0.00    +0.062 C 
ATOM      8  C   UNL     1      20.416  -1.385 -18.769  0.00  0.00    -0.003 A 
ATOM      9  C   UNL     1      20.691   0.575 -17.607  0.00  0.00    +0.026 A 
ATOM     10  S   UNL     1      19.031  -1.344 -17.792  0.00  0.00    -0.088 S 
ATOM     11  C   UNL     1      19.315   0.332 -17.564  0.00  0.00    +0.074 A 
ENDROOT
BRANCH   1  14
ATOM     12 CL   UNL     1      23.313  -0.198 -24.505  0.00  0.00    -0.082 Cl
ATOM     13  C   UNL     1      24.389   0.387 -23.281  0.00  0.00    +0.068 A 
ATOM     14  C   UNL     1      24.485  -0.106 -21.978  0.00  0.00    +0.093 A 
ATOM     15  C   UNL     1      25.264   1.498 -23.555  0.00  0.00    +0.008 A 
ATOM     16  S   UNL     1      25.705   0.711 -21.127  0.00  0.00    -0.082 S 
ATOM     17  C   UNL     1      26.052   1.783 -22.435  0.00  0.00    +0.021 A 
ATOM     18  C   UNL     1      25.438   2.317 -24.712  0.00  0.00    +0.010 A 
ATOM     19  C   UNL     1      26.987   2.827 -22.444  0.00  0.00    +0.016 A 
ATOM     20  C   UNL     1      26.357   3.370 -24.712  0.00  0.00    +0.001 A 
ATOM     21  C   UNL     1      27.127   3.622 -23.585  0.00  0.00    +0.001 A 
ENDBRANCH   1  14
BRANCH  11  22
ATOM     22  C   UNL     1      18.149   1.191 -17.477  0.00  0.00    +0.251 C 
ATOM     23  O   UNL     1      17.455   1.525 -18.438  0.00  0.00    -0.270 OA
ATOM     24  N   UNL     1      17.851   1.671 -16.208  0.00  0.00    -0.307 N 
ATOM     25  H   UNL     1      17.041   2.223 -16.118  0.00  0.00    +0.149 HD
BRANCH  24  26
ATOM     26  C   UNL     1      18.625   1.434 -14.998  0.00  0.00    +0.139 C 
BRANCH  26  27
ATOM     27  C   UNL     1      19.371   2.636 -14.491  0.00  0.00    -0.030 A 
ATOM     28  C   UNL     1      18.688   3.600 -13.734  0.00  0.00    +0.005 A 
ATOM     29  C   UNL     1      20.755   2.759 -14.661  0.00  0.00    +0.005 A 
ATOM     30  C   UNL     1      19.380   4.651 -13.134  0.00  0.00    +0.000 A 
ATOM     31  C   UNL     1      21.446   3.816 -14.063  0.00  0.00    +0.000 A 
ATOM     32  C   UNL     1      20.760   4.757 -13.297  0.00  0.00    +0.000 A 
ENDBRANCH  26  27
ENDBRANCH  24  26
ENDBRANCH  11  22
TORSDOF 4
ENDMDL
MODEL 5
REMARK VINA RESULT:    -9.750      3.414      8.974
REMARK INTER + INTRA:         -12.634
REMARK INTER:                 -11.757
REMARK INTRA:                  -0.878
REMARK UNBOUND:                -0.605
REMARK  Name = CTX-1020670
REMARK  4 active torsions:
REMARK  status: ('A' for Active; 'I' for Inactive)
REMARK    1  A    between atoms: C_3  and  C_6
REMARK    2  A    between atoms: C_21  and  C_22
REMARK    3  A    between atoms: N_24  and  C_25
REMARK    4  A    between atoms: C_25  and  C_26
REMARK                            x       y       z     vdW  Elec       q    Type
REMARK                         _______ _______ _______ _____ _____    ______ ____
ROOT
ATOM      1  C   UNL     1      25.077   2.266 -20.437  0.00  0.00    +0.255 C 
ATOM      2  O   UNL     1      26.029   2.461 -19.671  0.00  0.00    -0.269 OA
ATOM      3  N   UNL     1      23.844   1.837 -19.876  0.00  0.00    -0.292 N 
ATOM      4  C   UNL     1      22.471   2.413 -20.116  0.00  0.00    +0.144 C 
ATOM      5  C   UNL     1      24.053   0.903 -18.758  0.00  0.00    +0.113 C 
ATOM      6  C   UNL     1      21.390   1.647 -19.347  0.00  0.00    -0.019 A 
ATOM      7  C   UNL     1      23.057   0.894 -17.607  0.00  0.00    +0.062 C 
ATOM      8  C   UNL     1      21.698   1.077 -18.129  0.00  0.00    -0.003 A 
ATOM      9  C   UNL     1      20.014   1.282 -19.675  0.00  0.00    +0.026 A 
ATOM     10  S   UNL     1      20.354   0.483 -17.284  0.00  0.00    -0.088 S 
ATOM     11  C   UNL     1      19.562   0.296 -18.794  0.00  0.00    +0.074 A 
ENDROOT
BRANCH   1  14
ATOM     12 CL   UNL     1      24.255  -0.344 -22.248  0.00  0.00    -0.082 Cl
ATOM     13  C   UNL     1      25.046   1.123 -22.718  0.00  0.00    +0.068 A 
ATOM     14  C   UNL     1      25.333   2.199 -21.875  0.00  0.00    +0.093 A 
ATOM     15  C   UNL     1      25.438   1.330 -24.088  0.00  0.00    +0.008 A 
ATOM     16  S   UNL     1      26.166   3.409 -22.725  0.00  0.00    -0.082 S 
ATOM     17  C   UNL     1      26.074   2.568 -24.229  0.00  0.00    +0.021 A 
ATOM     18  C   UNL     1      25.281   0.529 -25.260  0.00  0.00    +0.010 A 
ATOM     19  C   UNL     1      26.549   3.009 -25.472  0.00  0.00    +0.016 A 
ATOM     20  C   UNL     1      25.739   0.980 -26.501  0.00  0.00    +0.001 A 
ATOM     21  C   UNL     1      26.370   2.211 -26.605  0.00  0.00    +0.001 A 
ENDBRANCH   1  14
BRANCH  11  22
ATOM     22  C   UNL     1      18.687  -0.851 -18.939  0.00  0.00    +0.251 C 
ATOM     23  O   UNL     1      17.512  -0.885 -18.570  0.00  0.00    -0.270 OA
ATOM     24  N   UNL     1      19.264  -1.979 -19.511  0.00  0.00    -0.307 N 
ATOM     25  H   UNL     1      18.678  -2.756 -19.656  0.00  0.00    +0.149 HD
BRANCH  24  26
ATOM     26  C   UNL     1      20.656  -2.117 -19.916  0.00  0.00    +0.139 C 
BRANCH  26  27
ATOM     27  C   UNL     1      21.070  -3.522 -20.250  0.00  0.00    -0.030 A 
ATOM     28  C   UNL     1      21.087  -4.493 -19.236  0.00  0.00    +0.005 A 
ATOM     29  C   UNL     1      21.328  -3.911 -21.570  0.00  0.00    +0.005 A 
ATOM     30  C   UNL     1      21.331  -5.831 -19.542  0.00  0.00    +0.000 A 
ATOM     31  C   UNL     1      21.577  -5.252 -21.872  0.00  0.00    +0.000 A 
ATOM     32  C   UNL     1      21.573  -6.211 -20.860  0.00  0.00    +0.000 A 
ENDBRANCH  26  27
ENDBRANCH  24  26
ENDBRANCH  11  22
TORSDOF 4
ENDMDL
