MODEL 1
REMARK VINA RESULT:   -11.846      0.000      0.000
REMARK INTER + INTRA:         -16.299
REMARK INTER:                 -15.309
REMARK INTRA:                  -0.991
REMARK UNBOUND:                -0.991
REMARK  Name = CTX-1020565
REMARK  6 active torsions:
REMARK  status: ('A' for Active; 'I' for Inactive)
REMARK    1  A    between atoms: C_2  and  C_4
REMARK    2  A    between atoms: N_3  and  C_5
REMARK    3  A    between atoms: C_5  and  C_8
REMARK    4  A    between atoms: C_19  and  N_22
REMARK    5  A    between atoms: C_21  and  C_24
REMARK    6  A    between atoms: C_28  and  C_33
REMARK                            x       y       z     vdW  Elec       q    Type
REMARK                         _______ _______ _______ _____ _____    ______ ____
ROOT
ATOM      1  C   UNL     1      28.767   4.813 -22.765  0.00  0.00    +0.126 A 
ATOM      2  N   UNL     1      28.530   3.697 -22.008  0.00  0.00    -0.245 NA
ATOM      3  C   UNL     1      28.076   5.115 -23.935  0.00  0.00    +0.033 A 
ATOM      4  C   UNL     1      27.527   2.857 -22.430  0.00  0.00    +0.063 A 
ATOM      5  C   UNL     1      27.085   4.249 -24.361  0.00  0.00    +0.008 A 
ATOM      6  C   UNL     1      26.802   3.103 -23.613  0.00  0.00    -0.023 A 
ATOM      7  C   UNL     1      27.220   1.601 -21.598  0.00  0.00    +0.163 C 
ATOM      8  C   UNL     1      25.669   2.211 -24.055  0.00  0.00    +0.056 C 
ATOM      9  N   UNL     1      25.935   0.974 -21.942  0.00  0.00    -0.289 N 
ATOM     10  C   UNL     1      25.680   0.847 -23.371  0.00  0.00    +0.113 C 
ATOM     11  C   UNL     1      25.069   0.510 -20.930  0.00  0.00    +0.283 C 
ATOM     12  O   UNL     1      25.510   0.226 -19.816  0.00  0.00    -0.267 OA
ENDROOT
BRANCH  11  13
ATOM     13  C   UNL     1      23.612   0.600 -21.198  0.00  0.00    +0.194 A 
ATOM     14  O   UNL     1      23.067   1.827 -20.857  0.00  0.00    -0.450 OA
ATOM     15  C   UNL     1      22.585  -0.321 -20.942  0.00  0.00    +0.008 A 
ATOM     16  C   UNL     1      22.247   1.559 -19.820  0.00  0.00    +0.136 A 
ATOM     17  C   UNL     1      21.983   0.204 -19.761  0.00  0.00    +0.024 A 
ATOM     18  C   UNL     1      22.087  -1.504 -21.687  0.00  0.00    +0.048 C 
ATOM     19  C   UNL     1      21.781   2.501 -18.916  0.00  0.00    +0.047 A 
ATOM     20  C   UNL     1      21.189  -0.281 -18.712  0.00  0.00    +0.012 A 
ATOM     21  C   UNL     1      21.033   1.996 -17.853  0.00  0.00    +0.004 A 
ATOM     22  C   UNL     1      20.759   0.631 -17.738  0.00  0.00    +0.001 A 
ENDBRANCH  11  13
BRANCH   1  24
ATOM     23  O   UNL     1      30.484   5.588 -21.322  0.00  0.00    -0.269 OA
ATOM     24  C   UNL     1      29.804   5.807 -22.323  0.00  0.00    +0.263 C 
ATOM     25  N   UNL     1      29.953   6.949 -23.083  0.00  0.00    -0.306 N 
ATOM     26  H   UNL     1      29.392   7.075 -23.883  0.00  0.00    +0.149 HD
BRANCH  25  27
ATOM     27  C   UNL     1      30.920   7.968 -22.725  0.00  0.00    +0.140 C 
BRANCH  27  28
ATOM     28  C   UNL     1      32.067   8.051 -23.701  0.00  0.00    -0.030 A 
ATOM     29  C   UNL     1      31.884   7.744 -25.052  0.00  0.00    +0.007 A 
ATOM     30  C   UNL     1      33.342   8.421 -23.281  0.00  0.00    +0.007 A 
ATOM     31  C   UNL     1      32.950   7.827 -25.960  0.00  0.00    +0.023 A 
ATOM     32  C   UNL     1      34.411   8.482 -24.196  0.00  0.00    +0.023 A 
ATOM     33  C   UNL     1      34.241   8.199 -25.558  0.00  0.00    +0.030 A 
BRANCH  33  34
ATOM     34  N   UNL     1      35.284   8.274 -26.454  0.00  0.00    -0.326 N 
ATOM     35  C   UNL     1      36.569   8.910 -26.137  0.00  0.00    +0.133 C 
ATOM     36  C   UNL     1      35.200   7.745 -27.823  0.00  0.00    +0.133 C 
ATOM     37  C   UNL     1      36.891   9.976 -27.194  0.00  0.00    +0.178 C 
ATOM     38  C   UNL     1      35.593   8.855 -28.818  0.00  0.00    +0.178 C 
ATOM     39  O   UNL     1      36.884   9.417 -28.520  0.00  0.00    -0.377 OA
ENDBRANCH  33  34
ENDBRANCH  27  28
ENDBRANCH  25  27
ENDBRANCH   1  24
TORSDOF 5
ENDMDL
MODEL 2
REMARK VINA RESULT:   -11.064      3.189     12.690
REMARK INTER + INTRA:         -15.288
REMARK INTER:                 -15.267
REMARK INTRA:                  -0.021
REMARK UNBOUND:                -0.991
REMARK  Name = CTX-1020565
REMARK  6 active torsions:
REMARK  status: ('A' for Active; 'I' for Inactive)
REMARK    1  A    between atoms: C_2  and  C_4
REMARK    2  A    between atoms: N_3  and  C_5
REMARK    3  A    between atoms: C_5  and  C_8
REMARK    4  A    between atoms: C_19  and  N_22
REMARK    5  A    between atoms: C_21  and  C_24
REMARK    6  A    between atoms: C_28  and  C_33
REMARK                            x       y       z     vdW  Elec       q    Type
REMARK                         _______ _______ _______ _____ _____    ______ ____
ROOT
ATOM      1  C   UNL     1      29.301   4.485 -17.554  0.00  0.00    +0.126 A 
ATOM      2  N   UNL     1      29.391   4.103 -18.867  0.00  0.00    -0.245 NA
ATOM      3  C   UNL     1      30.060   5.507 -16.992  0.00  0.00    +0.033 A 
ATOM      4  C   UNL     1      30.266   4.804 -19.662  0.00  0.00    +0.063 A 
ATOM      5  C   UNL     1      30.953   6.188 -17.799  0.00  0.00    +0.008 A 
ATOM      6  C   UNL     1      31.071   5.839 -19.147  0.00  0.00    -0.023 A 
ATOM      7  C   UNL     1      30.385   4.415 -21.145  0.00  0.00    +0.163 C 
ATOM      8  C   UNL     1      31.998   6.642 -20.025  0.00  0.00    +0.056 C 
ATOM      9  N   UNL     1      31.076   5.427 -21.959  0.00  0.00    -0.289 N 
ATOM     10  C   UNL     1      32.291   5.966 -21.361  0.00  0.00    +0.113 C 
ATOM     11  C   UNL     1      30.584   5.783 -23.231  0.00  0.00    +0.283 C 
ATOM     12  O   UNL     1      29.864   5.006 -23.860  0.00  0.00    -0.267 OA
ENDROOT
BRANCH  11  13
ATOM     13  C   UNL     1      30.781   7.190 -23.659  0.00  0.00    +0.194 A 
ATOM     14  O   UNL     1      30.983   7.325 -25.023  0.00  0.00    -0.450 OA
ATOM     15  C   UNL     1      31.556   8.211 -23.090  0.00  0.00    +0.008 A 
ATOM     16  C   UNL     1      32.259   7.745 -25.138  0.00  0.00    +0.136 A 
ATOM     17  C   UNL     1      32.712   8.227 -23.925  0.00  0.00    +0.024 A 
ATOM     18  C   UNL     1      31.304   9.165 -21.982  0.00  0.00    +0.048 C 
ATOM     19  C   UNL     1      33.021   7.658 -26.294  0.00  0.00    +0.047 A 
ATOM     20  C   UNL     1      34.041   8.662 -23.828  0.00  0.00    +0.012 A 
ATOM     21  C   UNL     1      34.352   8.049 -26.168  0.00  0.00    +0.004 A 
ATOM     22  C   UNL     1      34.862   8.522 -24.956  0.00  0.00    +0.001 A 
ENDBRANCH  11  13
BRANCH   1  24
ATOM     23  O   UNL     1      28.701   2.983 -15.817  0.00  0.00    -0.269 OA
ATOM     24  C   UNL     1      28.314   3.805 -16.646  0.00  0.00    +0.263 C 
ATOM     25  N   UNL     1      26.984   4.147 -16.785  0.00  0.00    -0.306 N 
ATOM     26  H   UNL     1      26.725   4.819 -17.457  0.00  0.00    +0.149 HD
BRANCH  25  27
ATOM     27  C   UNL     1      25.962   3.533 -15.960  0.00  0.00    +0.140 C 
BRANCH  27  28
ATOM     28  C   UNL     1      24.997   2.692 -16.759  0.00  0.00    -0.030 A 
ATOM     29  C   UNL     1      25.382   2.115 -17.973  0.00  0.00    +0.007 A 
ATOM     30  C   UNL     1      23.695   2.479 -16.317  0.00  0.00    +0.007 A 
ATOM     31  C   UNL     1      24.485   1.329 -18.712  0.00  0.00    +0.023 A 
ATOM     32  C   UNL     1      22.796   1.704 -17.076  0.00  0.00    +0.023 A 
ATOM     33  C   UNL     1      23.170   1.100 -18.284  0.00  0.00    +0.030 A 
BRANCH  33  34
ATOM     34  N   UNL     1      22.294   0.331 -19.016  0.00  0.00    -0.326 N 
ATOM     35  C   UNL     1      20.838   0.521 -18.983  0.00  0.00    +0.133 C 
ATOM     36  C   UNL     1      22.733  -0.772 -19.883  0.00  0.00    +0.133 C 
ATOM     37  C   UNL     1      20.153  -0.806 -18.629  0.00  0.00    +0.178 C 
ATOM     38  C   UNL     1      21.960  -2.051 -19.505  0.00  0.00    +0.178 C 
ATOM     39  O   UNL     1      20.534  -1.852 -19.541  0.00  0.00    -0.377 OA
ENDBRANCH  33  34
ENDBRANCH  27  28
ENDBRANCH  25  27
ENDBRANCH   1  24
TORSDOF 5
ENDMDL
MODEL 3
REMARK VINA RESULT:   -10.955      3.763      6.666
REMARK INTER + INTRA:         -15.147
REMARK INTER:                 -14.285
REMARK INTRA:                  -0.862
REMARK UNBOUND:                -0.991
REMARK  Name = CTX-1020565
REMARK  6 active torsions:
REMARK  status: ('A' for Active; 'I' for Inactive)
REMARK    1  A    between atoms: C_2  and  C_4
REMARK    2  A    between atoms: N_3  and  C_5
REMARK    3  A    between atoms: C_5  and  C_8
REMARK    4  A    between atoms: C_19  and  N_22
REMARK    5  A    between atoms: C_21  and  C_24
REMARK    6  A    between atoms: C_28  and  C_33
REMARK                            x       y       z     vdW  Elec       q    Type
REMARK                         _______ _______ _______ _____ _____    ______ ____
ROOT
ATOM      1  C   UNL     1      25.675   2.847 -15.949  0.00  0.00    +0.126 A 
ATOM      2  N   UNL     1      25.222   2.628 -17.223  0.00  0.00    -0.245 NA
ATOM      3  C   UNL     1      24.915   2.610 -14.808  0.00  0.00    +0.033 A 
ATOM      4  C   UNL     1      23.952   2.118 -17.356  0.00  0.00    +0.063 A 
ATOM      5  C   UNL     1      23.631   2.119 -14.957  0.00  0.00    +0.008 A 
ATOM      6  C   UNL     1      23.131   1.872 -16.238  0.00  0.00    -0.023 A 
ATOM      7  C   UNL     1      23.413   1.846 -18.770  0.00  0.00    +0.163 C 
ATOM      8  C   UNL     1      21.755   1.268 -16.376  0.00  0.00    +0.056 C 
ATOM      9  N   UNL     1      22.209   1.001 -18.782  0.00  0.00    -0.289 N 
ATOM     10  C   UNL     1      21.200   1.362 -17.794  0.00  0.00    +0.113 C 
ATOM     11  C   UNL     1      22.071  -0.039 -19.724  0.00  0.00    +0.283 C 
ATOM     12  O   UNL     1      22.700  -0.008 -20.782  0.00  0.00    -0.267 OA
ENDROOT
BRANCH  11  13
ATOM     13  C   UNL     1      21.331  -1.249 -19.287  0.00  0.00    +0.194 A 
ATOM     14  O   UNL     1      22.148  -2.348 -19.084  0.00  0.00    -0.450 OA
ATOM     15  C   UNL     1      20.126  -1.793 -19.756  0.00  0.00    +0.008 A 
ATOM     16  C   UNL     1      21.794  -3.218 -20.051  0.00  0.00    +0.136 A 
ATOM     17  C   UNL     1      20.569  -2.865 -20.583  0.00  0.00    +0.024 A 
ATOM     18  C   UNL     1      18.704  -1.491 -19.458  0.00  0.00    +0.048 C 
ATOM     19  C   UNL     1      22.572  -4.282 -20.483  0.00  0.00    +0.047 A 
ATOM     20  C   UNL     1      20.054  -3.621 -21.646  0.00  0.00    +0.012 A 
ATOM     21  C   UNL     1      22.068  -4.994 -21.570  0.00  0.00    +0.004 A 
ATOM     22  C   UNL     1      20.844  -4.660 -22.156  0.00  0.00    +0.001 A 
ENDBRANCH  11  13
BRANCH   1  24
ATOM     23  O   UNL     1      27.777   2.847 -14.846  0.00  0.00    -0.269 OA
ATOM     24  C   UNL     1      27.078   3.339 -15.731  0.00  0.00    +0.263 C 
ATOM     25  N   UNL     1      27.534   4.344 -16.560  0.00  0.00    -0.306 N 
ATOM     26  H   UNL     1      26.941   4.699 -17.262  0.00  0.00    +0.149 HD
BRANCH  25  27
ATOM     27  C   UNL     1      28.870   4.889 -16.414  0.00  0.00    +0.140 C 
BRANCH  27  28
ATOM     28  C   UNL     1      29.548   5.128 -17.740  0.00  0.00    -0.030 A 
ATOM     29  C   UNL     1      30.074   6.383 -18.061  0.00  0.00    +0.007 A 
ATOM     30  C   UNL     1      29.658   4.111 -18.684  0.00  0.00    +0.007 A 
ATOM     31  C   UNL     1      30.710   6.603 -19.292  0.00  0.00    +0.023 A 
ATOM     32  C   UNL     1      30.281   4.347 -19.925  0.00  0.00    +0.023 A 
ATOM     33  C   UNL     1      30.833   5.592 -20.256  0.00  0.00    +0.030 A 
BRANCH  33  34
ATOM     34  N   UNL     1      31.455   5.817 -21.464  0.00  0.00    -0.326 N 
ATOM     35  C   UNL     1      32.876   6.171 -21.580  0.00  0.00    +0.133 C 
ATOM     36  C   UNL     1      30.749   5.747 -22.751  0.00  0.00    +0.133 C 
ATOM     37  C   UNL     1      33.018   7.465 -22.394  0.00  0.00    +0.178 C 
ATOM     38  C   UNL     1      30.988   7.055 -23.530  0.00  0.00    +0.178 C 
ATOM     39  O   UNL     1      32.390   7.344 -23.684  0.00  0.00    -0.377 OA
ENDBRANCH  33  34
ENDBRANCH  27  28
ENDBRANCH  25  27
ENDBRANCH   1  24
TORSDOF 5
ENDMDL
MODEL 4
REMARK VINA RESULT:   -10.498      3.813      6.064
REMARK INTER + INTRA:         -14.557
REMARK INTER:                 -14.100
REMARK INTRA:                  -0.457
REMARK UNBOUND:                -0.991
REMARK  Name = CTX-1020565
REMARK  6 active torsions:
REMARK  status: ('A' for Active; 'I' for Inactive)
REMARK    1  A    between atoms: C_2  and  C_4
REMARK    2  A    between atoms: N_3  and  C_5
REMARK    3  A    between atoms: C_5  and  C_8
REMARK    4  A    between atoms: C_19  and  N_22
REMARK    5  A    between atoms: C_21  and  C_24
REMARK    6  A    between atoms: C_28  and  C_33
REMARK                            x       y       z     vdW  Elec       q    Type
REMARK                         _______ _______ _______ _____ _____    ______ ____
ROOT
ATOM      1  C   UNL     1      26.385   3.019 -17.443  0.00  0.00    +0.126 A 
ATOM      2  N   UNL     1      25.405   3.181 -16.499  0.00  0.00    -0.245 NA
ATOM      3  C   UNL     1      26.259   2.189 -18.553  0.00  0.00    +0.033 A 
ATOM      4  C   UNL     1      24.228   2.498 -16.697  0.00  0.00    +0.063 A 
ATOM      5  C   UNL     1      25.079   1.490 -18.727  0.00  0.00    +0.008 A 
ATOM      6  C   UNL     1      24.048   1.633 -17.794  0.00  0.00    -0.023 A 
ATOM      7  C   UNL     1      23.099   2.665 -15.667  0.00  0.00    +0.163 C 
ATOM      8  C   UNL     1      22.743   0.918 -18.041  0.00  0.00    +0.056 C 
ATOM      9  N   UNL     1      21.797   2.174 -16.145  0.00  0.00    -0.289 N 
ATOM     10  C   UNL     1      21.841   0.878 -16.811  0.00  0.00    +0.113 C 
ATOM     11  C   UNL     1      20.622   2.917 -15.914  0.00  0.00    +0.283 C 
ATOM     12  O   UNL     1      20.569   3.727 -14.989  0.00  0.00    -0.267 OA
ENDROOT
BRANCH  11  13
ATOM     13  C   UNL     1      19.564   2.843 -16.954  0.00  0.00    +0.194 A 
ATOM     14  O   UNL     1      18.375   2.307 -16.488  0.00  0.00    -0.450 OA
ATOM     15  C   UNL     1      19.635   2.425 -18.291  0.00  0.00    +0.008 A 
ATOM     16  C   UNL     1      18.253   1.133 -17.140  0.00  0.00    +0.136 A 
ATOM     17  C   UNL     1      19.096   1.107 -18.235  0.00  0.00    +0.024 A 
ATOM     18  C   UNL     1      20.040   3.117 -19.540  0.00  0.00    +0.048 C 
ATOM     19  C   UNL     1      17.438   0.085 -16.739  0.00  0.00    +0.047 A 
ATOM     20  C   UNL     1      19.154  -0.059 -19.011  0.00  0.00    +0.012 A 
ATOM     21  C   UNL     1      17.542  -1.082 -17.493  0.00  0.00    +0.004 A 
ATOM     22  C   UNL     1      18.397  -1.163 -18.595  0.00  0.00    +0.001 A 
ENDBRANCH  11  13
BRANCH   1  24
ATOM     23  O   UNL     1      27.690   4.872 -16.739  0.00  0.00    -0.269 OA
ATOM     24  C   UNL     1      27.670   3.790 -17.323  0.00  0.00    +0.263 C 
ATOM     25  N   UNL     1      28.799   3.230 -17.884  0.00  0.00    -0.306 N 
ATOM     26  H   UNL     1      28.735   2.355 -18.332  0.00  0.00    +0.149 HD
BRANCH  25  27
ATOM     27  C   UNL     1      30.080   3.908 -17.826  0.00  0.00    +0.140 C 
BRANCH  27  28
ATOM     28  C   UNL     1      30.318   4.804 -19.017  0.00  0.00    -0.030 A 
ATOM     29  C   UNL     1      30.494   4.267 -20.295  0.00  0.00    +0.007 A 
ATOM     30  C   UNL     1      30.382   6.187 -18.873  0.00  0.00    +0.007 A 
ATOM     31  C   UNL     1      30.709   5.102 -21.403  0.00  0.00    +0.023 A 
ATOM     32  C   UNL     1      30.619   7.015 -19.988  0.00  0.00    +0.023 A 
ATOM     33  C   UNL     1      30.776   6.497 -21.280  0.00  0.00    +0.030 A 
BRANCH  33  34
ATOM     34  N   UNL     1      30.992   7.309 -22.371  0.00  0.00    -0.326 N 
ATOM     35  C   UNL     1      30.559   6.958 -23.730  0.00  0.00    +0.133 C 
ATOM     36  C   UNL     1      31.699   8.594 -22.282  0.00  0.00    +0.133 C 
ATOM     37  C   UNL     1      31.757   7.032 -24.687  0.00  0.00    +0.178 C 
ATOM     38  C   UNL     1      32.847   8.612 -23.310  0.00  0.00    +0.178 C 
ATOM     39  O   UNL     1      32.384   8.327 -24.643  0.00  0.00    -0.377 OA
ENDBRANCH  33  34
ENDBRANCH  27  28
ENDBRANCH  25  27
ENDBRANCH   1  24
TORSDOF 5
ENDMDL
MODEL 5
REMARK VINA RESULT:    -9.918      4.038     12.820
REMARK INTER + INTRA:         -13.807
REMARK INTER:                 -12.936
REMARK INTRA:                  -0.872
REMARK UNBOUND:                -0.991
REMARK  Name = CTX-1020565
REMARK  6 active torsions:
REMARK  status: ('A' for Active; 'I' for Inactive)
REMARK    1  A    between atoms: C_2  and  C_4
REMARK    2  A    between atoms: N_3  and  C_5
REMARK    3  A    between atoms: C_5  and  C_8
REMARK    4  A    between atoms: C_19  and  N_22
REMARK    5  A    between atoms: C_21  and  C_24
REMARK    6  A    between atoms: C_28  and  C_33
REMARK                            x       y       z     vdW  Elec       q    Type
REMARK                         _______ _______ _______ _____ _____    ______ ____
ROOT
ATOM      1  C   UNL     1      25.655   3.138 -16.630  0.00  0.00    +0.126 A 
ATOM      2  N   UNL     1      26.467   2.814 -17.685  0.00  0.00    -0.245 NA
ATOM      3  C   UNL     1      26.016   4.026 -15.622  0.00  0.00    +0.033 A 
ATOM      4  C   UNL     1      27.691   3.437 -17.746  0.00  0.00    +0.063 A 
ATOM      5  C   UNL     1      27.260   4.628 -15.683  0.00  0.00    +0.008 A 
ATOM      6  C   UNL     1      28.117   4.335 -16.747  0.00  0.00    -0.023 A 
ATOM      7  C   UNL     1      28.625   3.111 -18.923  0.00  0.00    +0.163 C 
ATOM      8  C   UNL     1      29.439   5.057 -16.834  0.00  0.00    +0.056 C 
ATOM      9  N   UNL     1      29.734   4.066 -19.069  0.00  0.00    -0.289 N 
ATOM     10  C   UNL     1      30.406   4.417 -17.825  0.00  0.00    +0.113 C 
ATOM     11  C   UNL     1      30.105   4.545 -20.342  0.00  0.00    +0.283 C 
ATOM     12  O   UNL     1      29.833   3.898 -21.354  0.00  0.00    -0.267 OA
ENDROOT
BRANCH  11  13
ATOM     13  C   UNL     1      30.619   5.936 -20.415  0.00  0.00    +0.194 A 
ATOM     14  O   UNL     1      29.902   6.740 -21.286  0.00  0.00    -0.450 OA
ATOM     15  C   UNL     1      31.935   6.413 -20.503  0.00  0.00    +0.008 A 
ATOM     16  C   UNL     1      30.765   7.011 -22.286  0.00  0.00    +0.136 A 
ATOM     17  C   UNL     1      32.059   6.732 -21.887  0.00  0.00    +0.024 A 
ATOM     18  C   UNL     1      32.982   6.667 -19.483  0.00  0.00    +0.048 C 
ATOM     19  C   UNL     1      30.401   7.455 -23.548  0.00  0.00    +0.047 A 
ATOM     20  C   UNL     1      33.099   6.898 -22.813  0.00  0.00    +0.012 A 
ATOM     21  C   UNL     1      31.440   7.569 -24.470  0.00  0.00    +0.004 A 
ATOM     22  C   UNL     1      32.761   7.277 -24.119  0.00  0.00    +0.001 A 
ENDBRANCH  11  13
BRANCH   1  24
ATOM     23  O   UNL     1      23.947   1.895 -15.549  0.00  0.00    -0.269 OA
ATOM     24  C   UNL     1      24.277   2.544 -16.540  0.00  0.00    +0.263 C 
ATOM     25  N   UNL     1      23.421   2.764 -17.600  0.00  0.00    -0.306 N 
ATOM     26  H   UNL     1      23.729   3.300 -18.367  0.00  0.00    +0.149 HD
BRANCH  25  27
ATOM     27  C   UNL     1      22.078   2.220 -17.604  0.00  0.00    +0.140 C 
BRANCH  27  28
ATOM     28  C   UNL     1      21.965   0.954 -18.418  0.00  0.00    -0.030 A 
ATOM     29  C   UNL     1      20.747   0.277 -18.528  0.00  0.00    +0.007 A 
ATOM     30  C   UNL     1      23.072   0.420 -19.070  0.00  0.00    +0.007 A 
ATOM     31  C   UNL     1      20.643  -0.896 -19.290  0.00  0.00    +0.023 A 
ATOM     32  C   UNL     1      22.962  -0.770 -19.817  0.00  0.00    +0.023 A 
ATOM     33  C   UNL     1      21.745  -1.451 -19.956  0.00  0.00    +0.030 A 
BRANCH  33  34
ATOM     34  N   UNL     1      21.635  -2.605 -20.698  0.00  0.00    -0.326 N 
ATOM     35  C   UNL     1      20.800  -3.743 -20.292  0.00  0.00    +0.133 C 
ATOM     36  C   UNL     1      22.365  -2.817 -21.956  0.00  0.00    +0.133 C 
ATOM     37  C   UNL     1      21.650  -5.021 -20.265  0.00  0.00    +0.178 C 
ATOM     38  C   UNL     1      23.144  -4.144 -21.871  0.00  0.00    +0.178 C 
ATOM     39  O   UNL     1      22.289  -5.253 -21.534  0.00  0.00    -0.377 OA
ENDBRANCH  33  34
ENDBRANCH  27  28
ENDBRANCH  25  27
ENDBRANCH   1  24
TORSDOF 5
ENDMDL
