MODEL 1
REMARK VINA RESULT:   -11.898      0.000      0.000
REMARK INTER + INTRA:         -14.335
REMARK INTER:                 -15.376
REMARK INTRA:                   1.041
REMARK UNBOUND:                 1.041
REMARK  Name = CTX-1020669
REMARK  6 active torsions:
REMARK  status: ('A' for Active; 'I' for Inactive)
REMARK    1  A    between atoms: C_3  and  C_6
REMARK    2  A    between atoms: C_21  and  C_22
REMARK    3  A    between atoms: N_24  and  C_25
REMARK    4  A    between atoms: C_25  and  C_26
REMARK    5  A    between atoms: C_31  and  N_32
REMARK    6  A    between atoms: N_37  and  C_38
REMARK                            x       y       z     vdW  Elec       q    Type
REMARK                         _______ _______ _______ _____ _____    ______ ____
ROOT
ATOM      1  C   UNL     1      25.098   0.126 -20.014  0.00  0.00    +0.255 C 
ATOM      2  O   UNL     1      25.747  -0.101 -21.033  0.00  0.00    -0.269 OA
ATOM      3  N   UNL     1      25.673   0.913 -18.942  0.00  0.00    -0.292 N 
ATOM      4  C   UNL     1      27.202   1.061 -18.628  0.00  0.00    +0.144 C 
ATOM      5  C   UNL     1      24.901   2.131 -18.802  0.00  0.00    +0.113 C 
ATOM      6  C   UNL     1      27.513   2.336 -17.751  0.00  0.00    -0.019 A 
ATOM      7  C   UNL     1      25.058   2.834 -17.477  0.00  0.00    +0.062 C 
ATOM      8  C   UNL     1      26.464   2.971 -17.121  0.00  0.00    -0.003 A 
ATOM      9  C   UNL     1      28.695   3.203 -17.510  0.00  0.00    +0.026 A 
ATOM     10  S   UNL     1      26.920   4.087 -15.940  0.00  0.00    -0.088 S 
ATOM     11  C   UNL     1      28.292   4.409 -16.914  0.00  0.00    +0.074 A 
ENDROOT
BRANCH   1  14
ATOM     12 CL   UNL     1      23.426  -2.427 -21.631  0.00  0.00    -0.082 Cl
ATOM     13  C   UNL     1      22.881  -1.333 -20.418  0.00  0.00    +0.068 A 
ATOM     14  C   UNL     1      23.636  -0.297 -19.859  0.00  0.00    +0.093 A 
ATOM     15  C   UNL     1      21.500  -1.443 -19.904  0.00  0.00    +0.008 A 
ATOM     16  S   UNL     1      22.618   0.598 -18.779  0.00  0.00    -0.082 S 
ATOM     17  C   UNL     1      21.233  -0.403 -19.017  0.00  0.00    +0.021 A 
ATOM     18  C   UNL     1      20.418  -2.376 -20.134  0.00  0.00    +0.010 A 
ATOM     19  C   UNL     1      19.961  -0.248 -18.405  0.00  0.00    +0.016 A 
ATOM     20  C   UNL     1      19.160  -2.261 -19.503  0.00  0.00    +0.001 A 
ATOM     21  C   UNL     1      18.937  -1.198 -18.630  0.00  0.00    +0.001 A 
ENDBRANCH   1  14
BRANCH  11  22
ATOM     22  C   UNL     1      28.687   5.811 -16.981  0.00  0.00    +0.251 C 
ATOM     23  O   UNL     1      28.194   6.707 -16.295  0.00  0.00    -0.270 OA
ATOM     24  N   UNL     1      29.612   6.133 -17.976  0.00  0.00    -0.307 N 
ATOM     25  H   UNL     1      29.804   7.088 -18.115  0.00  0.00    +0.149 HD
BRANCH  24  26
ATOM     26  C   UNL     1      30.316   5.191 -18.826  0.00  0.00    +0.139 C 
BRANCH  26  27
ATOM     27  C   UNL     1      30.846   5.819 -20.082  0.00  0.00    -0.030 A 
ATOM     28  C   UNL     1      32.053   6.538 -20.030  0.00  0.00    +0.007 A 
ATOM     29  C   UNL     1      30.220   5.664 -21.319  0.00  0.00    +0.007 A 
ATOM     30  C   UNL     1      32.605   7.086 -21.185  0.00  0.00    +0.023 A 
ATOM     31  C   UNL     1      30.784   6.245 -22.474  0.00  0.00    +0.023 A 
ATOM     32  C   UNL     1      31.970   6.990 -22.441  0.00  0.00    +0.030 A 
BRANCH  32  33
ATOM     33  N   UNL     1      32.490   7.626 -23.555  0.00  0.00    -0.333 N 
ATOM     34  C   UNL     1      31.703   7.808 -24.785  0.00  0.00    +0.086 C 
ATOM     35  C   UNL     1      33.737   8.353 -23.508  0.00  0.00    +0.086 C 
ATOM     36  C   UNL     1      32.583   7.523 -26.022  0.00  0.00    -0.060 C 
ATOM     37  C   UNL     1      34.569   8.079 -24.781  0.00  0.00    -0.060 C 
ATOM     38  N   UNL     1      33.812   8.351 -26.023  0.00  0.00    +0.380 N 
ATOM     39  C   UNL     1      34.627   8.073 -27.201  0.00  0.00    -0.096 C 
ATOM     40  H   UNL     1      33.559   9.338 -26.059  0.00  0.00    -0.082 HD
ENDBRANCH  32  33
ENDBRANCH  26  27
ENDBRANCH  24  26
ENDBRANCH  11  22
TORSDOF 5
ENDMDL
MODEL 2
REMARK VINA RESULT:   -11.496      2.598      2.989
REMARK INTER + INTRA:         -13.815
REMARK INTER:                 -13.698
REMARK INTRA:                  -0.117
REMARK UNBOUND:                 1.041
REMARK  Name = CTX-1020669
REMARK  6 active torsions:
REMARK  status: ('A' for Active; 'I' for Inactive)
REMARK    1  A    between atoms: C_3  and  C_6
REMARK    2  A    between atoms: C_21  and  C_22
REMARK    3  A    between atoms: N_24  and  C_25
REMARK    4  A    between atoms: C_25  and  C_26
REMARK    5  A    between atoms: C_31  and  N_32
REMARK    6  A    between atoms: N_37  and  C_38
REMARK                            x       y       z     vdW  Elec       q    Type
REMARK                         _______ _______ _______ _____ _____    ______ ____
ROOT
ATOM      1  C   UNL     1      24.006   1.781 -18.217  0.00  0.00    +0.255 C 
ATOM      2  O   UNL     1      24.076   1.720 -19.443  0.00  0.00    -0.269 OA
ATOM      3  N   UNL     1      25.213   1.779 -17.416  0.00  0.00    -0.292 N 
ATOM      4  C   UNL     1      26.589   1.148 -17.828  0.00  0.00    +0.144 C 
ATOM      5  C   UNL     1      25.307   3.048 -16.723  0.00  0.00    +0.113 C 
ATOM      6  C   UNL     1      27.791   1.733 -16.989  0.00  0.00    -0.019 A 
ATOM      7  C   UNL     1      26.220   3.051 -15.524  0.00  0.00    +0.062 C 
ATOM      8  C   UNL     1      27.506   2.446 -15.844  0.00  0.00    -0.003 A 
ATOM      9  C   UNL     1      29.258   1.868 -17.177  0.00  0.00    +0.026 A 
ATOM     10  S   UNL     1      28.831   2.723 -14.835  0.00  0.00    -0.088 S 
ATOM     11  C   UNL     1      29.776   2.798 -16.262  0.00  0.00    +0.074 A 
ENDROOT
BRANCH   1  14
ATOM     12 CL   UNL     1      20.957   2.761 -19.510  0.00  0.00    -0.082 Cl
ATOM     13  C   UNL     1      21.394   2.316 -17.905  0.00  0.00    +0.068 A 
ATOM     14  C   UNL     1      22.681   1.975 -17.477  0.00  0.00    +0.093 A 
ATOM     15  C   UNL     1      20.362   2.292 -16.847  0.00  0.00    +0.008 A 
ATOM     16  S   UNL     1      22.639   1.727 -15.762  0.00  0.00    -0.082 S 
ATOM     17  C   UNL     1      20.944   2.014 -15.613  0.00  0.00    +0.021 A 
ATOM     18  C   UNL     1      18.930   2.497 -16.843  0.00  0.00    +0.010 A 
ATOM     19  C   UNL     1      20.180   1.971 -14.417  0.00  0.00    +0.016 A 
ATOM     20  C   UNL     1      18.148   2.418 -15.669  0.00  0.00    +0.001 A 
ATOM     21  C   UNL     1      18.776   2.145 -14.457  0.00  0.00    +0.001 A 
ENDBRANCH   1  14
BRANCH  11  22
ATOM     22  C   UNL     1      30.819   3.818 -16.259  0.00  0.00    +0.251 C 
ATOM     23  O   UNL     1      31.668   3.943 -15.377  0.00  0.00    -0.270 OA
ATOM     24  N   UNL     1      30.749   4.760 -17.288  0.00  0.00    -0.307 N 
ATOM     25  H   UNL     1      31.370   5.521 -17.239  0.00  0.00    +0.149 HD
BRANCH  24  26
ATOM     26  C   UNL     1      29.844   4.721 -18.422  0.00  0.00    +0.139 C 
BRANCH  26  27
ATOM     27  C   UNL     1      30.414   5.374 -19.647  0.00  0.00    -0.030 A 
ATOM     28  C   UNL     1      31.072   6.609 -19.521  0.00  0.00    +0.007 A 
ATOM     29  C   UNL     1      30.373   4.770 -20.904  0.00  0.00    +0.007 A 
ATOM     30  C   UNL     1      31.663   7.216 -20.626  0.00  0.00    +0.023 A 
ATOM     31  C   UNL     1      30.959   5.412 -22.015  0.00  0.00    +0.023 A 
ATOM     32  C   UNL     1      31.594   6.657 -21.919  0.00  0.00    +0.030 A 
BRANCH  32  33
ATOM     33  N   UNL     1      32.105   7.328 -23.016  0.00  0.00    -0.333 N 
ATOM     34  C   UNL     1      31.275   7.649 -24.188  0.00  0.00    +0.086 C 
ATOM     35  C   UNL     1      33.403   7.960 -22.990  0.00  0.00    +0.086 C 
ATOM     36  C   UNL     1      32.070   7.385 -25.486  0.00  0.00    -0.060 C 
ATOM     37  C   UNL     1      34.150   7.714 -24.320  0.00  0.00    -0.060 C 
ATOM     38  N   UNL     1      33.356   8.123 -25.500  0.00  0.00    +0.380 N 
ATOM     39  C   UNL     1      34.090   7.868 -26.735  0.00  0.00    -0.096 C 
ATOM     40  H   UNL     1      33.175   9.126 -25.459  0.00  0.00    -0.082 HD
ENDBRANCH  32  33
ENDBRANCH  26  27
ENDBRANCH  24  26
ENDBRANCH  11  22
TORSDOF 5
ENDMDL
MODEL 3
REMARK VINA RESULT:   -11.170      5.811     12.011
REMARK INTER + INTRA:         -13.394
REMARK INTER:                 -13.108
REMARK INTRA:                  -0.286
REMARK UNBOUND:                 1.041
REMARK  Name = CTX-1020669
REMARK  6 active torsions:
REMARK  status: ('A' for Active; 'I' for Inactive)
REMARK    1  A    between atoms: C_3  and  C_6
REMARK    2  A    between atoms: C_21  and  C_22
REMARK    3  A    between atoms: N_24  and  C_25
REMARK    4  A    between atoms: C_25  and  C_26
REMARK    5  A    between atoms: C_31  and  N_32
REMARK    6  A    between atoms: N_37  and  C_38
REMARK                            x       y       z     vdW  Elec       q    Type
REMARK                         _______ _______ _______ _____ _____    ______ ____
ROOT
ATOM      1  C   UNL     1      25.669   1.923 -17.609  0.00  0.00    +0.255 C 
ATOM      2  O   UNL     1      25.567   1.014 -18.431  0.00  0.00    -0.269 OA
ATOM      3  N   UNL     1      24.483   2.559 -17.073  0.00  0.00    -0.292 N 
ATOM      4  C   UNL     1      23.089   2.657 -17.788  0.00  0.00    +0.144 C 
ATOM      5  C   UNL     1      24.421   2.292 -15.651  0.00  0.00    +0.113 C 
ATOM      6  C   UNL     1      21.916   2.951 -16.773  0.00  0.00    -0.019 A 
ATOM      7  C   UNL     1      23.539   3.230 -14.866  0.00  0.00    +0.062 C 
ATOM      8  C   UNL     1      22.239   3.382 -15.504  0.00  0.00    -0.003 A 
ATOM      9  C   UNL     1      20.446   2.739 -16.752  0.00  0.00    +0.026 A 
ATOM     10  S   UNL     1      20.943   4.003 -14.618  0.00  0.00    -0.088 S 
ATOM     11  C   UNL     1      19.962   2.864 -15.440  0.00  0.00    +0.074 A 
ENDROOT
BRANCH   1  14
ATOM     12 CL   UNL     1      27.769   0.139 -15.528  0.00  0.00    -0.082 Cl
ATOM     13  C   UNL     1      27.957   1.703 -16.223  0.00  0.00    +0.068 A 
ATOM     14  C   UNL     1      27.014   2.355 -17.024  0.00  0.00    +0.093 A 
ATOM     15  C   UNL     1      29.193   2.472 -15.968  0.00  0.00    +0.008 A 
ATOM     16  S   UNL     1      27.605   3.946 -17.377  0.00  0.00    -0.082 S 
ATOM     17  C   UNL     1      29.094   3.743 -16.528  0.00  0.00    +0.021 A 
ATOM     18  C   UNL     1      30.430   2.177 -15.277  0.00  0.00    +0.010 A 
ATOM     19  C   UNL     1      30.131   4.704 -16.396  0.00  0.00    +0.016 A 
ATOM     20  C   UNL     1      31.489   3.106 -15.170  0.00  0.00    +0.001 A 
ATOM     21  C   UNL     1      31.339   4.368 -15.740  0.00  0.00    +0.001 A 
ENDBRANCH   1  14
BRANCH  11  22
ATOM     22  C   UNL     1      18.932   2.233 -14.624  0.00  0.00    +0.251 C 
ATOM     23  O   UNL     1      18.930   2.219 -13.392  0.00  0.00    -0.270 OA
ATOM     24  N   UNL     1      17.958   1.517 -15.323  0.00  0.00    -0.307 N 
ATOM     25  H   UNL     1      17.322   0.989 -14.789  0.00  0.00    +0.149 HD
BRANCH  24  26
ATOM     26  C   UNL     1      17.796   1.478 -16.765  0.00  0.00    +0.139 C 
BRANCH  26  27
ATOM     27  C   UNL     1      18.568   0.364 -17.409  0.00  0.00    -0.030 A 
ATOM     28  C   UNL     1      18.965  -0.735 -16.629  0.00  0.00    +0.007 A 
ATOM     29  C   UNL     1      18.855   0.345 -18.775  0.00  0.00    +0.007 A 
ATOM     30  C   UNL     1      19.632  -1.812 -17.205  0.00  0.00    +0.023 A 
ATOM     31  C   UNL     1      19.551  -0.746 -19.335  0.00  0.00    +0.023 A 
ATOM     32  C   UNL     1      19.982  -1.839 -18.571  0.00  0.00    +0.030 A 
BRANCH  32  33
ATOM     33  N   UNL     1      20.730  -2.877 -19.097  0.00  0.00    -0.333 N 
ATOM     34  C   UNL     1      21.290  -2.821 -20.458  0.00  0.00    +0.086 C 
ATOM     35  C   UNL     1      21.207  -3.968 -18.279  0.00  0.00    +0.086 C 
ATOM     36  C   UNL     1      21.112  -4.187 -21.158  0.00  0.00    -0.060 C 
ATOM     37  C   UNL     1      21.056  -5.310 -19.029  0.00  0.00    -0.060 C 
ATOM     38  N   UNL     1      21.700  -5.291 -20.362  0.00  0.00    +0.380 N 
ATOM     39  C   UNL     1      21.529  -6.571 -21.041  0.00  0.00    -0.096 C 
ATOM     40  H   UNL     1      22.702  -5.139 -20.254  0.00  0.00    -0.082 HD
ENDBRANCH  32  33
ENDBRANCH  26  27
ENDBRANCH  24  26
ENDBRANCH  11  22
TORSDOF 5
ENDMDL
MODEL 4
REMARK VINA RESULT:   -11.096      3.669      5.506
REMARK INTER + INTRA:         -13.298
REMARK INTER:                 -14.594
REMARK INTRA:                   1.296
REMARK UNBOUND:                 1.041
REMARK  Name = CTX-1020669
REMARK  6 active torsions:
REMARK  status: ('A' for Active; 'I' for Inactive)
REMARK    1  A    between atoms: C_3  and  C_6
REMARK    2  A    between atoms: C_21  and  C_22
REMARK    3  A    between atoms: N_24  and  C_25
REMARK    4  A    between atoms: C_25  and  C_26
REMARK    5  A    between atoms: C_31  and  N_32
REMARK    6  A    between atoms: N_37  and  C_38
REMARK                            x       y       z     vdW  Elec       q    Type
REMARK                         _______ _______ _______ _____ _____    ______ ____
ROOT
ATOM      1  C   UNL     1      20.770   0.764 -17.604  0.00  0.00    +0.255 C 
ATOM      2  O   UNL     1      19.812   0.204 -18.134  0.00  0.00    -0.269 OA
ATOM      3  N   UNL     1      22.087   0.680 -18.202  0.00  0.00    -0.292 N 
ATOM      4  C   UNL     1      22.606  -0.478 -19.124  0.00  0.00    +0.144 C 
ATOM      5  C   UNL     1      22.494   2.011 -18.606  0.00  0.00    +0.113 C 
ATOM      6  C   UNL     1      23.854  -0.042 -19.987  0.00  0.00    -0.019 A 
ATOM      7  C   UNL     1      23.976   2.185 -18.815  0.00  0.00    +0.062 C 
ATOM      8  C   UNL     1      24.518   1.116 -19.643  0.00  0.00    -0.003 A 
ATOM      9  C   UNL     1      24.478  -0.486 -21.260  0.00  0.00    +0.026 A 
ATOM     10  S   UNL     1      26.023   1.314 -20.381  0.00  0.00    -0.088 S 
ATOM     11  C   UNL     1      25.356   0.502 -21.734  0.00  0.00    +0.074 A 
ENDROOT
BRANCH   1  14
ATOM     12 CL   UNL     1      23.198   1.703 -15.335  0.00  0.00    -0.082 Cl
ATOM     13  C   UNL     1      21.535   2.139 -15.429  0.00  0.00    +0.068 A 
ATOM     14  C   UNL     1      20.621   1.660 -16.373  0.00  0.00    +0.093 A 
ATOM     15  C   UNL     1      20.970   3.082 -14.441  0.00  0.00    +0.008 A 
ATOM     16  S   UNL     1      19.053   2.290 -15.984  0.00  0.00    -0.082 S 
ATOM     17  C   UNL     1      19.596   3.212 -14.631  0.00  0.00    +0.021 A 
ATOM     18  C   UNL     1      21.539   3.859 -13.361  0.00  0.00    +0.010 A 
ATOM     19  C   UNL     1      18.798   4.031 -13.788  0.00  0.00    +0.016 A 
ATOM     20  C   UNL     1      20.767   4.710 -12.539  0.00  0.00    +0.001 A 
ATOM     21  C   UNL     1      19.395   4.800 -12.762  0.00  0.00    +0.001 A 
ENDBRANCH   1  14
BRANCH  11  22
ATOM     22  C   UNL     1      25.756   1.033 -23.032  0.00  0.00    +0.251 C 
ATOM     23  O   UNL     1      25.180   0.788 -24.093  0.00  0.00    -0.270 OA
ATOM     24  N   UNL     1      26.939   1.776 -23.045  0.00  0.00    -0.307 N 
ATOM     25  H   UNL     1      27.288   2.043 -23.926  0.00  0.00    +0.149 HD
BRANCH  24  26
ATOM     26  C   UNL     1      27.702   2.188 -21.882  0.00  0.00    +0.139 C 
BRANCH  26  27
ATOM     27  C   UNL     1      28.655   3.310 -22.175  0.00  0.00    -0.030 A 
ATOM     28  C   UNL     1      28.352   4.212 -23.209  0.00  0.00    +0.007 A 
ATOM     29  C   UNL     1      29.804   3.533 -21.416  0.00  0.00    +0.007 A 
ATOM     30  C   UNL     1      29.183   5.297 -23.472  0.00  0.00    +0.023 A 
ATOM     31  C   UNL     1      30.644   4.627 -21.713  0.00  0.00    +0.023 A 
ATOM     32  C   UNL     1      30.378   5.521 -22.757  0.00  0.00    +0.030 A 
BRANCH  32  33
ATOM     33  N   UNL     1      31.235   6.552 -23.103  0.00  0.00    -0.333 N 
ATOM     34  C   UNL     1      30.974   7.427 -24.257  0.00  0.00    +0.086 C 
ATOM     35  C   UNL     1      32.302   6.984 -22.231  0.00  0.00    +0.086 C 
ATOM     36  C   UNL     1      32.285   7.681 -25.034  0.00  0.00    -0.060 C 
ATOM     37  C   UNL     1      33.582   7.272 -23.047  0.00  0.00    -0.060 C 
ATOM     38  N   UNL     1      33.346   8.227 -24.154  0.00  0.00    +0.380 N 
ATOM     39  C   UNL     1      34.574   8.466 -24.905  0.00  0.00    -0.096 C 
ATOM     40  H   UNL     1      33.046   9.123 -23.773  0.00  0.00    -0.082 HD
ENDBRANCH  32  33
ENDBRANCH  26  27
ENDBRANCH  24  26
ENDBRANCH  11  22
TORSDOF 5
ENDMDL
MODEL 5
REMARK VINA RESULT:   -11.072      4.947      9.210
REMARK INTER + INTRA:         -13.267
REMARK INTER:                 -12.310
REMARK INTRA:                  -0.957
REMARK UNBOUND:                 1.041
REMARK  Name = CTX-1020669
REMARK  6 active torsions:
REMARK  status: ('A' for Active; 'I' for Inactive)
REMARK    1  A    between atoms: C_3  and  C_6
REMARK    2  A    between atoms: C_21  and  C_22
REMARK    3  A    between atoms: N_24  and  C_25
REMARK    4  A    between atoms: C_25  and  C_26
REMARK    5  A    between atoms: C_31  and  N_32
REMARK    6  A    between atoms: N_37  and  C_38
REMARK                            x       y       z     vdW  Elec       q    Type
REMARK                         _______ _______ _______ _____ _____    ______ ____
ROOT
ATOM      1  C   UNL     1      19.460   1.700 -18.446  0.00  0.00    +0.255 C 
ATOM      2  O   UNL     1      19.294   2.360 -19.469  0.00  0.00    -0.269 OA
ATOM      3  N   UNL     1      19.579   0.258 -18.518  0.00  0.00    -0.292 N 
ATOM      4  C   UNL     1      18.974  -0.660 -19.637  0.00  0.00    +0.144 C 
ATOM      5  C   UNL     1      20.907  -0.115 -18.075  0.00  0.00    +0.113 C 
ATOM      6  C   UNL     1      19.682  -2.070 -19.702  0.00  0.00    -0.019 A 
ATOM      7  C   UNL     1      21.055  -1.555 -17.653  0.00  0.00    +0.062 C 
ATOM      8  C   UNL     1      20.480  -2.453 -18.645  0.00  0.00    -0.003 A 
ATOM      9  C   UNL     1      19.862  -3.127 -20.730  0.00  0.00    +0.026 A 
ATOM     10  S   UNL     1      20.901  -4.088 -18.634  0.00  0.00    -0.088 S 
ATOM     11  C   UNL     1      20.890  -4.001 -20.344  0.00  0.00    +0.074 A 
ENDROOT
BRANCH   1  14
ATOM     12 CL   UNL     1      22.324   3.134 -17.156  0.00  0.00    -0.082 Cl
ATOM     13  C   UNL     1      20.748   2.993 -16.478  0.00  0.00    +0.068 A 
ATOM     14  C   UNL     1      19.661   2.346 -17.074  0.00  0.00    +0.093 A 
ATOM     15  C   UNL     1      20.473   3.570 -15.145  0.00  0.00    +0.008 A 
ATOM     16  S   UNL     1      18.336   2.363 -15.956  0.00  0.00    -0.082 S 
ATOM     17  C   UNL     1      19.179   3.252 -14.741  0.00  0.00    +0.021 A 
ATOM     18  C   UNL     1      21.251   4.364 -14.219  0.00  0.00    +0.010 A 
ATOM     19  C   UNL     1      18.669   3.651 -13.477  0.00  0.00    +0.016 A 
ATOM     20  C   UNL     1      20.746   4.805 -12.975  0.00  0.00    +0.001 A 
ATOM     21  C   UNL     1      19.449   4.453 -12.611  0.00  0.00    +0.001 A 
ENDBRANCH   1  14
BRANCH  11  22
ATOM     22  C   UNL     1      21.950  -4.753 -21.008  0.00  0.00    +0.251 C 
ATOM     23  O   UNL     1      22.395  -5.829 -20.608  0.00  0.00    -0.270 OA
ATOM     24  N   UNL     1      22.545  -4.124 -22.104  0.00  0.00    -0.307 N 
ATOM     25  H   UNL     1      23.337  -4.560 -22.493  0.00  0.00    +0.149 HD
BRANCH  24  26
ATOM     26  C   UNL     1      22.105  -2.887 -22.721  0.00  0.00    +0.139 C 
BRANCH  26  27
ATOM     27  C   UNL     1      23.053  -1.747 -22.487  0.00  0.00    -0.030 A 
ATOM     28  C   UNL     1      23.175  -0.746 -23.465  0.00  0.00    +0.007 A 
ATOM     29  C   UNL     1      23.775  -1.606 -21.301  0.00  0.00    +0.007 A 
ATOM     30  C   UNL     1      24.001   0.355 -23.257  0.00  0.00    +0.023 A 
ATOM     31  C   UNL     1      24.622  -0.493 -21.118  0.00  0.00    +0.023 A 
ATOM     32  C   UNL     1      24.782   0.501 -22.092  0.00  0.00    +0.030 A 
BRANCH  32  33
ATOM     33  N   UNL     1      25.668   1.556 -21.953  0.00  0.00    -0.333 N 
ATOM     34  C   UNL     1      25.704   2.672 -22.911  0.00  0.00    +0.086 C 
ATOM     35  C   UNL     1      26.442   1.751 -20.749  0.00  0.00    +0.086 C 
ATOM     36  C   UNL     1      27.169   3.052 -23.223  0.00  0.00    -0.060 C 
ATOM     37  C   UNL     1      27.885   2.174 -21.099  0.00  0.00    -0.060 C 
ATOM     38  N   UNL     1      27.931   3.356 -21.988  0.00  0.00    +0.380 N 
ATOM     39  C   UNL     1      29.309   3.718 -22.303  0.00  0.00    -0.096 C 
ATOM     40  H   UNL     1      27.510   4.155 -21.515  0.00  0.00    -0.082 HD
ENDBRANCH  32  33
ENDBRANCH  26  27
ENDBRANCH  24  26
ENDBRANCH  11  22
TORSDOF 5
ENDMDL
