MODEL 1
REMARK VINA RESULT:   -11.237      0.000      0.000
REMARK INTER + INTRA:         -15.100
REMARK INTER:                 -14.522
REMARK INTRA:                  -0.578
REMARK UNBOUND:                -0.578
REMARK  Name = CTX-1020582
REMARK  7 active torsions:
REMARK  status: ('A' for Active; 'I' for Inactive)
REMARK    1  A    between atoms: C_2  and  C_5
REMARK    2  A    between atoms: C_4  and  C_8
REMARK    3  A    between atoms: C_20  and  C_22
REMARK    4  A    between atoms: N_25  and  C_26
REMARK    5  A    between atoms: C_26  and  C_27
REMARK    6  A    between atoms: C_32  and  N_33
REMARK    7  A    between atoms: N_38  and  C_39
REMARK                            x       y       z     vdW  Elec       q    Type
REMARK                         _______ _______ _______ _____ _____    ______ ____
ROOT
ATOM      1  C   UNL     1      25.738   0.788 -19.779  0.00  0.00    +0.254 C 
ATOM      2  O   UNL     1      26.369   0.530 -18.738  0.00  0.00    -0.269 OA
ATOM      3  N   UNL     1      26.426   1.831 -20.641  0.00  0.00    -0.291 N 
ATOM      4  C   UNL     1      27.756   2.596 -20.409  0.00  0.00    +0.163 C 
ATOM      5  C   UNL     1      25.913   1.927 -21.938  0.00  0.00    +0.113 C 
ATOM      6  C   UNL     1      28.306   3.588 -21.611  0.00  0.00    +0.063 A 
ATOM      7  C   UNL     1      26.312   2.861 -23.016  0.00  0.00    +0.056 C 
ATOM      8  N   UNL     1      29.416   4.400 -21.514  0.00  0.00    -0.245 NA
ATOM      9  C   UNL     1      27.557   3.617 -22.785  0.00  0.00    -0.023 A 
ATOM     10  C   UNL     1      29.738   5.292 -22.579  0.00  0.00    +0.126 A 
ATOM     11  C   UNL     1      27.914   4.479 -23.839  0.00  0.00    +0.008 A 
ATOM     12  C   UNL     1      28.936   5.338 -23.726  0.00  0.00    +0.033 A 
ENDROOT
BRANCH   1  14
ATOM     13  S   UNL     1      24.566  -1.289 -21.368  0.00  0.00    -0.082 S 
ATOM     14  C   UNL     1      24.348  -0.097 -20.064  0.00  0.00    +0.078 A 
ATOM     15  C   UNL     1      22.996  -2.022 -21.306  0.00  0.00    +0.038 A 
ATOM     16  C   UNL     1      22.998  -0.329 -19.589  0.00  0.00    -0.023 A 
ATOM     17  C   UNL     1      22.199  -1.462 -20.317  0.00  0.00    -0.004 A 
ATOM     18  C   UNL     1      22.500  -3.069 -22.124  0.00  0.00    +0.126 A 
ATOM     19  C   UNL     1      22.258   0.357 -18.485  0.00  0.00    +0.046 C 
ATOM     20  C   UNL     1      20.848  -2.046 -20.207  0.00  0.00    +0.029 A 
ATOM     21  N   UNL     1      21.231  -3.575 -21.983  0.00  0.00    -0.262 NA
ATOM     22  C   UNL     1      20.414  -3.082 -21.049  0.00  0.00    +0.111 A 
ENDBRANCH   1  14
BRANCH  10  23
ATOM     23  C   UNL     1      30.930   6.208 -22.671  0.00  0.00    +0.263 C 
ATOM     24  O   UNL     1      32.079   5.813 -22.305  0.00  0.00    -0.269 OA
ATOM     25  N   UNL     1      30.820   7.509 -23.118  0.00  0.00    -0.306 N 
ATOM     26  H   UNL     1      29.940   7.794 -23.455  0.00  0.00    +0.149 HD
BRANCH  25  27
ATOM     27  C   UNL     1      31.877   8.492 -23.136  0.00  0.00    +0.140 C 
BRANCH  27  28
ATOM     28  C   UNL     1      32.910   8.240 -24.236  0.00  0.00    -0.030 A 
ATOM     29  C   UNL     1      34.284   8.328 -23.991  0.00  0.00    +0.007 A 
ATOM     30  C   UNL     1      32.467   7.924 -25.504  0.00  0.00    +0.007 A 
ATOM     31  C   UNL     1      35.184   8.256 -25.075  0.00  0.00    +0.023 A 
ATOM     32  C   UNL     1      33.377   7.796 -26.560  0.00  0.00    +0.023 A 
ATOM     33  C   UNL     1      34.746   8.001 -26.368  0.00  0.00    +0.030 A 
BRANCH  33  34
ATOM     34  N   UNL     1      35.617   7.896 -27.443  0.00  0.00    -0.333 N 
ATOM     35  C   UNL     1      36.769   6.991 -27.384  0.00  0.00    +0.086 C 
ATOM     36  C   UNL     1      35.210   8.273 -28.798  0.00  0.00    +0.086 C 
ATOM     37  C   UNL     1      37.943   7.631 -28.154  0.00  0.00    -0.060 C 
ATOM     38  C   UNL     1      36.434   8.898 -29.491  0.00  0.00    -0.060 C 
ATOM     39  N   UNL     1      37.552   7.976 -29.542  0.00  0.00    +0.380 N 
ATOM     40  C   UNL     1      38.679   8.556 -30.265  0.00  0.00    -0.096 C 
ATOM     41  H   UNL     1      37.272   7.134 -30.044  0.00  0.00    -0.082 HD
ENDBRANCH  33  34
ENDBRANCH  27  28
ENDBRANCH  25  27
ENDBRANCH  10  23
TORSDOF 5
ENDMDL
MODEL 2
REMARK VINA RESULT:   -10.756      1.780      2.431
REMARK INTER + INTRA:         -14.478
REMARK INTER:                 -14.524
REMARK INTRA:                   0.046
REMARK UNBOUND:                -0.578
REMARK  Name = CTX-1020582
REMARK  7 active torsions:
REMARK  status: ('A' for Active; 'I' for Inactive)
REMARK    1  A    between atoms: C_2  and  C_5
REMARK    2  A    between atoms: C_4  and  C_8
REMARK    3  A    between atoms: C_20  and  C_22
REMARK    4  A    between atoms: N_25  and  C_26
REMARK    5  A    between atoms: C_26  and  C_27
REMARK    6  A    between atoms: C_32  and  N_33
REMARK    7  A    between atoms: N_38  and  C_39
REMARK                            x       y       z     vdW  Elec       q    Type
REMARK                         _______ _______ _______ _____ _____    ______ ____
ROOT
ATOM      1  C   UNL     1      25.427   1.932 -23.607  0.00  0.00    +0.254 C 
ATOM      2  O   UNL     1      25.020   2.503 -24.635  0.00  0.00    -0.269 OA
ATOM      3  N   UNL     1      26.719   2.526 -23.078  0.00  0.00    -0.291 N 
ATOM      4  C   UNL     1      27.575   3.699 -23.624  0.00  0.00    +0.163 C 
ATOM      5  C   UNL     1      27.045   2.117 -21.781  0.00  0.00    +0.113 C 
ATOM      6  C   UNL     1      28.879   4.194 -22.738  0.00  0.00    +0.063 A 
ATOM      7  C   UNL     1      28.245   2.462 -20.984  0.00  0.00    +0.056 C 
ATOM      8  N   UNL     1      29.783   5.155 -23.138  0.00  0.00    -0.245 NA
ATOM      9  C   UNL     1      29.081   3.553 -21.518  0.00  0.00    -0.023 A 
ATOM     10  C   UNL     1      30.930   5.428 -22.336  0.00  0.00    +0.126 A 
ATOM     11  C   UNL     1      30.202   3.864 -20.724  0.00  0.00    +0.008 A 
ATOM     12  C   UNL     1      31.136   4.731 -21.139  0.00  0.00    +0.033 A 
ENDROOT
BRANCH   1  14
ATOM     13  S   UNL     1      24.641   0.569 -21.212  0.00  0.00    -0.082 S 
ATOM     14  C   UNL     1      24.460   0.723 -22.976  0.00  0.00    +0.078 A 
ATOM     15  C   UNL     1      23.469  -0.680 -20.946  0.00  0.00    +0.038 A 
ATOM     16  C   UNL     1      23.432  -0.241 -23.316  0.00  0.00    -0.023 A 
ATOM     17  C   UNL     1      22.845  -1.069 -22.123  0.00  0.00    -0.004 A 
ATOM     18  C   UNL     1      23.125  -1.291 -19.712  0.00  0.00    +0.126 A 
ATOM     19  C   UNL     1      22.838  -0.552 -24.653  0.00  0.00    +0.046 C 
ATOM     20  C   UNL     1      21.830  -2.128 -21.965  0.00  0.00    +0.029 A 
ATOM     21  N   UNL     1      22.174  -2.277 -19.620  0.00  0.00    -0.262 NA
ATOM     22  C   UNL     1      21.534  -2.695 -20.715  0.00  0.00    +0.111 A 
ENDBRANCH   1  14
BRANCH  10  23
ATOM     23  C   UNL     1      31.988   6.471 -22.584  0.00  0.00    +0.263 C 
ATOM     24  O   UNL     1      33.157   6.333 -22.111  0.00  0.00    -0.269 OA
ATOM     25  N   UNL     1      31.726   7.623 -23.299  0.00  0.00    -0.306 N 
ATOM     26  H   UNL     1      30.836   7.700 -23.713  0.00  0.00    +0.149 HD
BRANCH  25  27
ATOM     27  C   UNL     1      32.637   8.726 -23.493  0.00  0.00    +0.140 C 
BRANCH  27  28
ATOM     28  C   UNL     1      33.654   8.472 -24.607  0.00  0.00    -0.030 A 
ATOM     29  C   UNL     1      35.032   8.572 -24.385  0.00  0.00    +0.007 A 
ATOM     30  C   UNL     1      33.194   8.144 -25.865  0.00  0.00    +0.007 A 
ATOM     31  C   UNL     1      35.915   8.498 -25.482  0.00  0.00    +0.023 A 
ATOM     32  C   UNL     1      34.089   8.014 -26.934  0.00  0.00    +0.023 A 
ATOM     33  C   UNL     1      35.459   8.229 -26.765  0.00  0.00    +0.030 A 
BRANCH  33  34
ATOM     34  N   UNL     1      36.314   8.123 -27.853  0.00  0.00    -0.333 N 
ATOM     35  C   UNL     1      37.463   7.213 -27.811  0.00  0.00    +0.086 C 
ATOM     36  C   UNL     1      35.889   8.502 -29.201  0.00  0.00    +0.086 C 
ATOM     37  C   UNL     1      38.628   7.851 -28.597  0.00  0.00    -0.060 C 
ATOM     38  C   UNL     1      37.105   9.123 -29.912  0.00  0.00    -0.060 C 
ATOM     39  N   UNL     1      38.218   8.197 -29.980  0.00  0.00    +0.380 N 
ATOM     40  C   UNL     1      39.337   8.774 -30.718  0.00  0.00    -0.096 C 
ATOM     41  H   UNL     1      37.929   7.356 -30.478  0.00  0.00    -0.082 HD
ENDBRANCH  33  34
ENDBRANCH  27  28
ENDBRANCH  25  27
ENDBRANCH  10  23
TORSDOF 5
ENDMDL
MODEL 3
REMARK VINA RESULT:   -10.636      2.940      4.650
REMARK INTER + INTRA:         -14.323
REMARK INTER:                 -13.569
REMARK INTRA:                  -0.754
REMARK UNBOUND:                -0.578
REMARK  Name = CTX-1020582
REMARK  7 active torsions:
REMARK  status: ('A' for Active; 'I' for Inactive)
REMARK    1  A    between atoms: C_2  and  C_5
REMARK    2  A    between atoms: C_4  and  C_8
REMARK    3  A    between atoms: C_20  and  C_22
REMARK    4  A    between atoms: N_25  and  C_26
REMARK    5  A    between atoms: C_26  and  C_27
REMARK    6  A    between atoms: C_32  and  N_33
REMARK    7  A    between atoms: N_38  and  C_39
REMARK                            x       y       z     vdW  Elec       q    Type
REMARK                         _______ _______ _______ _____ _____    ______ ____
ROOT
ATOM      1  C   UNL     1      23.551   0.314 -19.560  0.00  0.00    +0.254 C 
ATOM      2  O   UNL     1      23.963  -0.081 -20.666  0.00  0.00    -0.269 OA
ATOM      3  N   UNL     1      24.561   1.187 -18.836  0.00  0.00    -0.291 N 
ATOM      4  C   UNL     1      25.983   1.633 -19.264  0.00  0.00    +0.163 C 
ATOM      5  C   UNL     1      24.031   1.885 -17.745  0.00  0.00    +0.113 C 
ATOM      6  C   UNL     1      26.792   2.701 -18.298  0.00  0.00    +0.063 A 
ATOM      7  C   UNL     1      24.737   2.779 -16.798  0.00  0.00    +0.056 C 
ATOM      8  N   UNL     1      28.092   3.114 -18.498  0.00  0.00    -0.245 NA
ATOM      9  C   UNL     1      26.103   3.178 -17.185  0.00  0.00    -0.023 A 
ATOM     10  C   UNL     1      28.723   3.962 -17.539  0.00  0.00    +0.126 A 
ATOM     11  C   UNL     1      26.734   4.043 -16.270  0.00  0.00    +0.008 A 
ATOM     12  C   UNL     1      28.023   4.383 -16.402  0.00  0.00    +0.033 A 
ENDROOT
BRANCH   1  14
ATOM     13  S   UNL     1      21.774  -1.863 -18.998  0.00  0.00    -0.082 S 
ATOM     14  C   UNL     1      21.988  -0.101 -19.137  0.00  0.00    +0.078 A 
ATOM     15  C   UNL     1      20.117  -1.878 -18.492  0.00  0.00    +0.038 A 
ATOM     16  C   UNL     1      20.702   0.447 -18.751  0.00  0.00    -0.023 A 
ATOM     17  C   UNL     1      19.598  -0.596 -18.369  0.00  0.00    -0.004 A 
ATOM     18  C   UNL     1      19.310  -3.011 -18.213  0.00  0.00    +0.126 A 
ATOM     19  C   UNL     1      20.280   1.878 -18.653  0.00  0.00    +0.046 C 
ATOM     20  C   UNL     1      18.189  -0.538 -17.934  0.00  0.00    +0.029 A 
ATOM     21  N   UNL     1      18.001  -2.902 -17.815  0.00  0.00    -0.262 NA
ATOM     22  C   UNL     1      17.442  -1.697 -17.675  0.00  0.00    +0.111 A 
ENDBRANCH   1  14
BRANCH  10  23
ATOM     23  C   UNL     1      30.106   4.551 -17.616  0.00  0.00    +0.263 C 
ATOM     24  O   UNL     1      30.964   4.310 -16.712  0.00  0.00    -0.269 OA
ATOM     25  N   UNL     1      30.487   5.394 -18.640  0.00  0.00    -0.306 N 
ATOM     26  H   UNL     1      29.840   5.533 -19.369  0.00  0.00    +0.149 HD
BRANCH  25  27
ATOM     27  C   UNL     1      31.746   6.093 -18.740  0.00  0.00    +0.140 C 
BRANCH  27  28
ATOM     28  C   UNL     1      32.032   6.613 -20.150  0.00  0.00    -0.030 A 
ATOM     29  C   UNL     1      31.164   6.363 -21.218  0.00  0.00    +0.007 A 
ATOM     30  C   UNL     1      33.183   7.341 -20.369  0.00  0.00    +0.007 A 
ATOM     31  C   UNL     1      31.559   6.716 -22.525  0.00  0.00    +0.023 A 
ATOM     32  C   UNL     1      33.533   7.738 -21.665  0.00  0.00    +0.023 A 
ATOM     33  C   UNL     1      32.745   7.395 -22.768  0.00  0.00    +0.030 A 
BRANCH  33  34
ATOM     34  N   UNL     1      33.138   7.778 -24.042  0.00  0.00    -0.333 N 
ATOM     35  C   UNL     1      32.169   7.812 -25.142  0.00  0.00    +0.086 C 
ATOM     36  C   UNL     1      34.336   8.590 -24.263  0.00  0.00    +0.086 C 
ATOM     37  C   UNL     1      32.884   7.397 -26.445  0.00  0.00    -0.060 C 
ATOM     38  C   UNL     1      34.981   8.115 -25.577  0.00  0.00    -0.060 C 
ATOM     39  N   UNL     1      34.074   8.245 -26.700  0.00  0.00    +0.380 N 
ATOM     40  C   UNL     1      34.723   7.859 -27.948  0.00  0.00    -0.096 C 
ATOM     41  H   UNL     1      33.792   9.221 -26.795  0.00  0.00    -0.082 HD
ENDBRANCH  33  34
ENDBRANCH  27  28
ENDBRANCH  25  27
ENDBRANCH  10  23
TORSDOF 5
ENDMDL
MODEL 4
REMARK VINA RESULT:   -10.475      1.407      2.002
REMARK INTER + INTRA:         -14.114
REMARK INTER:                 -13.509
REMARK INTRA:                  -0.605
REMARK UNBOUND:                -0.578
REMARK  Name = CTX-1020582
REMARK  7 active torsions:
REMARK  status: ('A' for Active; 'I' for Inactive)
REMARK    1  A    between atoms: C_2  and  C_5
REMARK    2  A    between atoms: C_4  and  C_8
REMARK    3  A    between atoms: C_20  and  C_22
REMARK    4  A    between atoms: N_25  and  C_26
REMARK    5  A    between atoms: C_26  and  C_27
REMARK    6  A    between atoms: C_32  and  N_33
REMARK    7  A    between atoms: N_38  and  C_39
REMARK                            x       y       z     vdW  Elec       q    Type
REMARK                         _______ _______ _______ _____ _____    ______ ____
ROOT
ATOM      1  C   UNL     1      26.815   1.293 -20.193  0.00  0.00    +0.254 C 
ATOM      2  O   UNL     1      27.366   0.989 -19.119  0.00  0.00    -0.269 OA
ATOM      3  N   UNL     1      27.565   2.373 -20.952  0.00  0.00    -0.291 N 
ATOM      4  C   UNL     1      28.870   3.127 -20.586  0.00  0.00    +0.163 C 
ATOM      5  C   UNL     1      27.151   2.527 -22.280  0.00  0.00    +0.113 C 
ATOM      6  C   UNL     1      29.508   4.171 -21.697  0.00  0.00    +0.063 A 
ATOM      7  C   UNL     1      27.629   3.508 -23.281  0.00  0.00    +0.056 C 
ATOM      8  N   UNL     1      30.605   4.977 -21.480  0.00  0.00    -0.245 NA
ATOM      9  C   UNL     1      28.850   4.252 -22.923  0.00  0.00    -0.023 A 
ATOM     10  C   UNL     1      31.004   5.916 -22.477  0.00  0.00    +0.126 A 
ATOM     11  C   UNL     1      29.284   5.161 -23.907  0.00  0.00    +0.008 A 
ATOM     12  C   UNL     1      30.292   6.013 -23.678  0.00  0.00    +0.033 A 
ENDROOT
BRANCH   1  14
ATOM     13  S   UNL     1      24.555  -0.163 -19.202  0.00  0.00    -0.082 S 
ATOM     14  C   UNL     1      25.454   0.423 -20.622  0.00  0.00    +0.078 A 
ATOM     15  C   UNL     1      23.232  -0.915 -20.032  0.00  0.00    +0.038 A 
ATOM     16  C   UNL     1      24.648   0.006 -21.753  0.00  0.00    -0.023 A 
ATOM     17  C   UNL     1      23.338  -0.782 -21.410  0.00  0.00    -0.004 A 
ATOM     18  C   UNL     1      22.133  -1.604 -19.458  0.00  0.00    +0.126 A 
ATOM     19  C   UNL     1      24.885   0.232 -23.212  0.00  0.00    +0.046 C 
ATOM     20  C   UNL     1      22.239  -1.397 -22.178  0.00  0.00    +0.029 A 
ATOM     21  N   UNL     1      21.137  -2.163 -20.219  0.00  0.00    -0.262 NA
ATOM     22  C   UNL     1      21.177  -2.068 -21.550  0.00  0.00    +0.111 A 
ENDBRANCH   1  14
BRANCH  10  23
ATOM     23  C   UNL     1      32.197   6.834 -22.437  0.00  0.00    +0.263 C 
ATOM     24  O   UNL     1      32.686   7.212 -21.328  0.00  0.00    -0.269 OA
ATOM     25  N   UNL     1      32.781   7.325 -23.587  0.00  0.00    -0.306 N 
ATOM     26  H   UNL     1      32.437   6.985 -24.444  0.00  0.00    +0.149 HD
BRANCH  25  27
ATOM     27  C   UNL     1      33.850   8.293 -23.648  0.00  0.00    +0.140 C 
BRANCH  27  28
ATOM     28  C   UNL     1      34.595   8.279 -24.984  0.00  0.00    -0.030 A 
ATOM     29  C   UNL     1      35.992   8.272 -25.050  0.00  0.00    +0.007 A 
ATOM     30  C   UNL     1      33.863   8.279 -26.153  0.00  0.00    +0.007 A 
ATOM     31  C   UNL     1      36.625   8.432 -26.300  0.00  0.00    +0.023 A 
ATOM     32  C   UNL     1      34.507   8.378 -27.392  0.00  0.00    +0.023 A 
ATOM     33  C   UNL     1      35.897   8.497 -27.480  0.00  0.00    +0.030 A 
BRANCH  33  34
ATOM     34  N   UNL     1      36.501   8.624 -28.723  0.00  0.00    -0.333 N 
ATOM     35  C   UNL     1      37.869   8.144 -28.939  0.00  0.00    +0.086 C 
ATOM     36  C   UNL     1      35.712   8.779 -29.946  0.00  0.00    +0.086 C 
ATOM     37  C   UNL     1      38.575   9.089 -29.934  0.00  0.00    -0.060 C 
ATOM     38  C   UNL     1      36.485   9.729 -30.878  0.00  0.00    -0.060 C 
ATOM     39  N   UNL     1      37.804   9.217 -31.194  0.00  0.00    +0.380 N 
ATOM     40  C   UNL     1      38.496  10.091 -32.135  0.00  0.00    -0.096 C 
ATOM     41  H   UNL     1      37.713   8.304 -31.641  0.00  0.00    -0.082 HD
ENDBRANCH  33  34
ENDBRANCH  27  28
ENDBRANCH  25  27
ENDBRANCH  10  23
TORSDOF 5
ENDMDL
MODEL 5
REMARK VINA RESULT:   -10.034      3.766     14.798
REMARK INTER + INTRA:         -13.545
REMARK INTER:                 -13.573
REMARK INTRA:                   0.028
REMARK UNBOUND:                -0.578
REMARK  Name = CTX-1020582
REMARK  7 active torsions:
REMARK  status: ('A' for Active; 'I' for Inactive)
REMARK    1  A    between atoms: C_2  and  C_5
REMARK    2  A    between atoms: C_4  and  C_8
REMARK    3  A    between atoms: C_20  and  C_22
REMARK    4  A    between atoms: N_25  and  C_26
REMARK    5  A    between atoms: C_26  and  C_27
REMARK    6  A    between atoms: C_32  and  N_33
REMARK    7  A    between atoms: N_38  and  C_39
REMARK                            x       y       z     vdW  Elec       q    Type
REMARK                         _______ _______ _______ _____ _____    ______ ____
ROOT
ATOM      1  C   UNL     1      29.400   4.082 -20.880  0.00  0.00    +0.254 C 
ATOM      2  O   UNL     1      29.417   3.697 -19.696  0.00  0.00    -0.269 OA
ATOM      3  N   UNL     1      28.348   3.373 -21.713  0.00  0.00    -0.291 N 
ATOM      4  C   UNL     1      27.333   2.272 -21.311  0.00  0.00    +0.163 C 
ATOM      5  C   UNL     1      28.098   3.978 -22.949  0.00  0.00    +0.113 C 
ATOM      6  C   UNL     1      26.219   1.788 -22.432  0.00  0.00    +0.063 A 
ATOM      7  C   UNL     1      27.179   3.530 -24.021  0.00  0.00    +0.056 C 
ATOM      8  N   UNL     1      25.319   0.759 -22.253  0.00  0.00    -0.245 NA
ATOM      9  C   UNL     1      26.235   2.459 -23.653  0.00  0.00    -0.023 A 
ATOM     10  C   UNL     1      24.472   0.362 -23.331  0.00  0.00    +0.126 A 
ATOM     11  C   UNL     1      25.365   2.073 -24.691  0.00  0.00    +0.008 A 
ATOM     12  C   UNL     1      24.547   1.019 -24.565  0.00  0.00    +0.033 A 
ENDROOT
BRANCH   1  14
ATOM     13  S   UNL     1      30.420   5.671 -23.035  0.00  0.00    -0.082 S 
ATOM     14  C   UNL     1      30.440   5.325 -21.289  0.00  0.00    +0.078 A 
ATOM     15  C   UNL     1      31.519   7.011 -23.040  0.00  0.00    +0.038 A 
ATOM     16  C   UNL     1      31.335   6.324 -20.737  0.00  0.00    -0.023 A 
ATOM     17  C   UNL     1      31.972   7.319 -21.765  0.00  0.00    -0.004 A 
ATOM     18  C   UNL     1      31.960   7.761 -24.161  0.00  0.00    +0.126 A 
ATOM     19  C   UNL     1      31.730   6.548 -19.312  0.00  0.00    +0.046 C 
ATOM     20  C   UNL     1      32.909   8.457 -21.698  0.00  0.00    +0.029 A 
ATOM     21  N   UNL     1      32.837   8.810 -24.045  0.00  0.00    -0.262 NA
ATOM     22  C   UNL     1      33.309   9.160 -22.846  0.00  0.00    +0.111 A 
ENDBRANCH   1  14
BRANCH  10  23
ATOM     23  C   UNL     1      23.401  -0.695 -23.304  0.00  0.00    +0.263 C 
ATOM     24  O   UNL     1      22.293  -0.510 -23.895  0.00  0.00    -0.269 OA
ATOM     25  N   UNL     1      23.561  -1.882 -22.618  0.00  0.00    -0.306 N 
ATOM     26  H   UNL     1      24.442  -2.048 -22.210  0.00  0.00    +0.149 HD
BRANCH  25  27
ATOM     27  C   UNL     1      22.555  -2.903 -22.441  0.00  0.00    +0.140 C 
BRANCH  27  28
ATOM     28  C   UNL     1      21.702  -2.692 -21.190  0.00  0.00    -0.030 A 
ATOM     29  C   UNL     1      20.307  -2.796 -21.223  0.00  0.00    +0.007 A 
ATOM     30  C   UNL     1      22.329  -2.384 -20.001  0.00  0.00    +0.007 A 
ATOM     31  C   UNL     1      19.561  -2.424 -20.085  0.00  0.00    +0.023 A 
ATOM     32  C   UNL     1      21.576  -2.075 -18.862  0.00  0.00    +0.023 A 
ATOM     33  C   UNL     1      20.179  -2.052 -18.900  0.00  0.00    +0.030 A 
BRANCH  33  34
ATOM     34  N   UNL     1      19.464  -1.711 -17.760  0.00  0.00    -0.333 N 
ATOM     35  C   UNL     1      18.002  -1.812 -17.741  0.00  0.00    +0.086 C 
ATOM     36  C   UNL     1      20.090  -1.704 -16.437  0.00  0.00    +0.086 C 
ATOM     37  C   UNL     1      17.438  -0.668 -16.871  0.00  0.00    -0.060 C 
ATOM     38  C   UNL     1      19.471  -0.541 -15.640  0.00  0.00    -0.060 C 
ATOM     39  N   UNL     1      18.034  -0.680 -15.513  0.00  0.00    +0.380 N 
ATOM     40  C   UNL     1      17.472   0.389 -14.695  0.00  0.00    -0.096 C 
ATOM     41  H   UNL     1      17.820  -1.562 -15.047  0.00  0.00    -0.082 HD
ENDBRANCH  33  34
ENDBRANCH  27  28
ENDBRANCH  25  27
ENDBRANCH  10  23
TORSDOF 5
ENDMDL
