MODEL 1
REMARK VINA RESULT:   -12.979      0.000      0.000
REMARK INTER + INTRA:         -18.828
REMARK INTER:                 -17.532
REMARK INTRA:                  -1.296
REMARK UNBOUND:                -1.296
REMARK  Name = CTX-1020521
REMARK  9 active torsions:
REMARK  status: ('A' for Active; 'I' for Inactive)
REMARK    1  A    between atoms: C_2  and  C_4
REMARK    2  A    between atoms: N_3  and  C_5
REMARK    3  A    between atoms: C_5  and  C_8
REMARK    4  A    between atoms: C_10  and  C_15
REMARK    5  A    between atoms: C_22  and  N_27
REMARK    6  A    between atoms: C_24  and  C_29
REMARK    7  A    between atoms: N_26  and  C_30
REMARK    8  A    between atoms: C_34  and  C_39
REMARK    9  A    between atoms: N_40  and  C_43
REMARK                            x       y       z     vdW  Elec       q    Type
REMARK                         _______ _______ _______ _____ _____    ______ ____
ROOT
ATOM      1  C   UNL     1      28.672   4.206 -22.594  0.00  0.00    +0.126 A 
ATOM      2  N   UNL     1      28.320   3.297 -21.642  0.00  0.00    -0.245 NA
ATOM      3  C   UNL     1      28.094   4.265 -23.860  0.00  0.00    +0.042 A 
ATOM      4  C   UNL     1      27.336   2.405 -21.972  0.00  0.00    +0.063 A 
ATOM      5  C   UNL     1      27.121   3.336 -24.216  0.00  0.00    -0.008 A 
ATOM      6  C   UNL     1      26.736   2.369 -23.258  0.00  0.00    -0.015 A 
ATOM      7  C   UNL     1      26.912   1.395 -20.881  0.00  0.00    +0.163 C 
ATOM      8  C   UNL     1      25.664   1.342 -23.557  0.00  0.00    +0.056 C 
ATOM      9  N   UNL     1      25.665   0.681 -21.188  0.00  0.00    -0.289 N 
ATOM     10  C   UNL     1      25.583   0.192 -22.557  0.00  0.00    +0.113 C 
ATOM     11  C   UNL     1      24.669   0.493 -20.205  0.00  0.00    +0.283 C 
ATOM     12  O   UNL     1      24.967   0.492 -19.010  0.00  0.00    -0.267 OA
ENDROOT
BRANCH  11  13
ATOM     13  C   UNL     1      23.263   0.528 -20.671  0.00  0.00    +0.194 A 
ATOM     14  O   UNL     1      22.712   1.797 -20.692  0.00  0.00    -0.450 OA
ATOM     15  C   UNL     1      22.190  -0.323 -20.384  0.00  0.00    +0.008 A 
ATOM     16  C   UNL     1      21.735   1.759 -19.754  0.00  0.00    +0.136 A 
ATOM     17  C   UNL     1      21.434   0.442 -19.447  0.00  0.00    +0.024 A 
ATOM     18  C   UNL     1      21.830  -1.676 -20.870  0.00  0.00    +0.048 C 
ATOM     19  C   UNL     1      21.168   2.871 -19.158  0.00  0.00    +0.047 A 
ATOM     20  C   UNL     1      20.500   0.189 -18.432  0.00  0.00    +0.012 A 
ATOM     21  C   UNL     1      20.290   2.604 -18.109  0.00  0.00    +0.004 A 
ATOM     22  C   UNL     1      19.972   1.290 -17.741  0.00  0.00    +0.001 A 
ENDBRANCH  11  13
BRANCH   5  23
ATOM     23  C   UNL     1      26.542   3.424 -25.558  0.00  0.00    +0.020 A 
ATOM     24  C   UNL     1      25.676   4.357 -26.169  0.00  0.00    +0.142 A 
ATOM     25  C   UNL     1      26.818   2.531 -26.585  0.00  0.00    +0.116 A 
ATOM     26  N   UNL     1      25.396   4.066 -27.442  0.00  0.00    -0.179 NA
ATOM     27  N   UNL     1      26.115   2.958 -27.675  0.00  0.00    -0.274 N 
ATOM     28  C   UNL     1      26.085   2.359 -28.988  0.00  0.00    +0.172 C 
ENDBRANCH   5  23
BRANCH   1  30
ATOM     29  O   UNL     1      30.784   4.859 -21.730  0.00  0.00    -0.269 OA
ATOM     30  C   UNL     1      29.751   5.212 -22.297  0.00  0.00    +0.263 C 
ATOM     31  N   UNL     1      29.517   6.518 -22.665  0.00  0.00    -0.306 N 
ATOM     32  H   UNL     1      28.694   6.739 -23.159  0.00  0.00    +0.149 HD
BRANCH  31  33
ATOM     33  C   UNL     1      30.455   7.575 -22.343  0.00  0.00    +0.140 C 
BRANCH  33  34
ATOM     34  C   UNL     1      31.591   7.653 -23.327  0.00  0.00    -0.030 A 
ATOM     35  C   UNL     1      31.344   7.636 -24.700  0.00  0.00    +0.007 A 
ATOM     36  C   UNL     1      32.913   7.808 -22.895  0.00  0.00    +0.007 A 
ATOM     37  C   UNL     1      32.399   7.738 -25.612  0.00  0.00    +0.023 A 
ATOM     38  C   UNL     1      33.965   7.907 -23.820  0.00  0.00    +0.023 A 
ATOM     39  C   UNL     1      33.735   7.865 -25.200  0.00  0.00    +0.030 A 
BRANCH  39  40
ATOM     40  N   UNL     1      34.731   8.019 -26.151  0.00  0.00    -0.333 N 
ATOM     41  C   UNL     1      34.420   8.282 -27.562  0.00  0.00    +0.086 C 
ATOM     42  C   UNL     1      36.027   8.592 -25.738  0.00  0.00    +0.086 C 
ATOM     43  C   UNL     1      35.563   7.729 -28.448  0.00  0.00    -0.060 C 
ATOM     44  C   UNL     1      37.145   8.034 -26.650  0.00  0.00    -0.060 C 
ATOM     45  N   UNL     1      36.889   8.285 -28.089  0.00  0.00    +0.380 N 
ATOM     46  C   UNL     1      37.935   7.680 -28.908  0.00  0.00    -0.096 C 
ATOM     47  H   UNL     1      36.895   9.289 -28.262  0.00  0.00    -0.082 HD
ENDBRANCH  39  40
ENDBRANCH  33  34
ENDBRANCH  31  33
ENDBRANCH   1  30
TORSDOF 6
ENDMDL
MODEL 2
REMARK VINA RESULT:   -12.231      3.351      5.832
REMARK INTER + INTRA:         -17.817
REMARK INTER:                 -16.912
REMARK INTRA:                  -0.905
REMARK UNBOUND:                -1.296
REMARK  Name = CTX-1020521
REMARK  9 active torsions:
REMARK  status: ('A' for Active; 'I' for Inactive)
REMARK    1  A    between atoms: C_2  and  C_4
REMARK    2  A    between atoms: N_3  and  C_5
REMARK    3  A    between atoms: C_5  and  C_8
REMARK    4  A    between atoms: C_10  and  C_15
REMARK    5  A    between atoms: C_22  and  N_27
REMARK    6  A    between atoms: C_24  and  C_29
REMARK    7  A    between atoms: N_26  and  C_30
REMARK    8  A    between atoms: C_34  and  C_39
REMARK    9  A    between atoms: N_40  and  C_43
REMARK                            x       y       z     vdW  Elec       q    Type
REMARK                         _______ _______ _______ _____ _____    ______ ____
ROOT
ATOM      1  C   UNL     1      26.226   3.381 -17.133  0.00  0.00    +0.126 A 
ATOM      2  N   UNL     1      25.235   3.403 -16.198  0.00  0.00    -0.245 NA
ATOM      3  C   UNL     1      26.150   2.665 -18.325  0.00  0.00    +0.042 A 
ATOM      4  C   UNL     1      24.108   2.676 -16.472  0.00  0.00    +0.063 A 
ATOM      5  C   UNL     1      25.024   1.893 -18.593  0.00  0.00    -0.008 A 
ATOM      6  C   UNL     1      23.977   1.881 -17.641  0.00  0.00    -0.015 A 
ATOM      7  C   UNL     1      22.970   2.728 -15.429  0.00  0.00    +0.163 C 
ATOM      8  C   UNL     1      22.708   1.089 -17.872  0.00  0.00    +0.056 C 
ATOM      9  N   UNL     1      21.694   2.185 -15.917  0.00  0.00    -0.289 N 
ATOM     10  C   UNL     1      21.822   0.928 -16.639  0.00  0.00    +0.113 C 
ATOM     11  C   UNL     1      20.473   2.850 -15.667  0.00  0.00    +0.283 C 
ATOM     12  O   UNL     1      20.361   3.602 -14.698  0.00  0.00    -0.267 OA
ENDROOT
BRANCH  11  13
ATOM     13  C   UNL     1      19.448   2.772 -16.733  0.00  0.00    +0.194 A 
ATOM     14  O   UNL     1      18.273   2.158 -16.336  0.00  0.00    -0.450 OA
ATOM     15  C   UNL     1      19.572   2.458 -18.092  0.00  0.00    +0.008 A 
ATOM     16  C   UNL     1      18.216   1.023 -17.072  0.00  0.00    +0.136 A 
ATOM     17  C   UNL     1      19.091   1.117 -18.142  0.00  0.00    +0.024 A 
ATOM     18  C   UNL     1      20.055   3.237 -19.257  0.00  0.00    +0.048 C 
ATOM     19  C   UNL     1      17.438  -0.080 -16.767  0.00  0.00    +0.047 A 
ATOM     20  C   UNL     1      19.240   0.004 -18.982  0.00  0.00    +0.012 A 
ATOM     21  C   UNL     1      17.644  -1.198 -17.573  0.00  0.00    +0.004 A 
ATOM     22  C   UNL     1      18.538  -1.165 -18.651  0.00  0.00    +0.001 A 
ENDBRANCH  11  13
BRANCH   5  23
ATOM     23  C   UNL     1      24.983   1.148 -19.853  0.00  0.00    +0.020 A 
ATOM     24  C   UNL     1      24.866  -0.228 -20.149  0.00  0.00    +0.142 A 
ATOM     25  C   UNL     1      25.006   1.739 -21.109  0.00  0.00    +0.116 A 
ATOM     26  N   UNL     1      24.857  -0.490 -21.458  0.00  0.00    -0.179 NA
ATOM     27  N   UNL     1      24.930   0.726 -22.021  0.00  0.00    -0.274 N 
ATOM     28  C   UNL     1      24.911   0.841 -23.460  0.00  0.00    +0.172 C 
ENDBRANCH   5  23
BRANCH   1  30
ATOM     29  O   UNL     1      27.449   5.253 -16.337  0.00  0.00    -0.269 OA
ATOM     30  C   UNL     1      27.493   4.154 -16.889  0.00  0.00    +0.263 C 
ATOM     31  N   UNL     1      28.672   3.591 -17.324  0.00  0.00    -0.306 N 
ATOM     32  H   UNL     1      28.658   2.688 -17.718  0.00  0.00    +0.149 HD
BRANCH  31  33
ATOM     33  C   UNL     1      29.933   4.297 -17.216  0.00  0.00    +0.140 C 
BRANCH  33  34
ATOM     34  C   UNL     1      30.340   4.947 -18.511  0.00  0.00    -0.030 A 
ATOM     35  C   UNL     1      30.997   6.178 -18.512  0.00  0.00    +0.007 A 
ATOM     36  C   UNL     1      30.126   4.309 -19.738  0.00  0.00    +0.007 A 
ATOM     37  C   UNL     1      31.399   6.766 -19.715  0.00  0.00    +0.023 A 
ATOM     38  C   UNL     1      30.533   4.910 -20.941  0.00  0.00    +0.023 A 
ATOM     39  C   UNL     1      31.169   6.157 -20.959  0.00  0.00    +0.030 A 
BRANCH  39  40
ATOM     40  N   UNL     1      31.642   6.762 -22.113  0.00  0.00    -0.333 N 
ATOM     41  C   UNL     1      30.731   7.297 -23.135  0.00  0.00    +0.086 C 
ATOM     42  C   UNL     1      32.928   7.485 -22.063  0.00  0.00    +0.086 C 
ATOM     43  C   UNL     1      31.432   7.252 -24.514  0.00  0.00    -0.060 C 
ATOM     44  C   UNL     1      33.595   7.436 -23.458  0.00  0.00    -0.060 C 
ATOM     45  N   UNL     1      32.724   7.978 -24.528  0.00  0.00    +0.380 N 
ATOM     46  C   UNL     1      33.370   7.846 -25.831  0.00  0.00    -0.096 C 
ATOM     47  H   UNL     1      32.558   8.970 -24.358  0.00  0.00    -0.082 HD
ENDBRANCH  39  40
ENDBRANCH  33  34
ENDBRANCH  31  33
ENDBRANCH   1  30
TORSDOF 6
ENDMDL
MODEL 3
REMARK VINA RESULT:   -11.312      4.050      7.586
REMARK INTER + INTRA:         -16.577
REMARK INTER:                 -15.417
REMARK INTRA:                  -1.159
REMARK UNBOUND:                -1.296
REMARK  Name = CTX-1020521
REMARK  9 active torsions:
REMARK  status: ('A' for Active; 'I' for Inactive)
REMARK    1  A    between atoms: C_2  and  C_4
REMARK    2  A    between atoms: N_3  and  C_5
REMARK    3  A    between atoms: C_5  and  C_8
REMARK    4  A    between atoms: C_10  and  C_15
REMARK    5  A    between atoms: C_22  and  N_27
REMARK    6  A    between atoms: C_24  and  C_29
REMARK    7  A    between atoms: N_26  and  C_30
REMARK    8  A    between atoms: C_34  and  C_39
REMARK    9  A    between atoms: N_40  and  C_43
REMARK                            x       y       z     vdW  Elec       q    Type
REMARK                         _______ _______ _______ _____ _____    ______ ____
ROOT
ATOM      1  C   UNL     1      25.681   3.259 -16.922  0.00  0.00    +0.126 A 
ATOM      2  N   UNL     1      25.526   2.658 -18.135  0.00  0.00    -0.245 NA
ATOM      3  C   UNL     1      24.681   3.321 -15.955  0.00  0.00    +0.042 A 
ATOM      4  C   UNL     1      24.310   2.085 -18.392  0.00  0.00    +0.063 A 
ATOM      5  C   UNL     1      23.430   2.775 -16.224  0.00  0.00    -0.008 A 
ATOM      6  C   UNL     1      23.226   2.152 -17.477  0.00  0.00    -0.015 A 
ATOM      7  C   UNL     1      24.144   1.374 -19.753  0.00  0.00    +0.163 C 
ATOM      8  C   UNL     1      21.902   1.509 -17.835  0.00  0.00    +0.056 C 
ATOM      9  N   UNL     1      22.942   0.532 -19.838  0.00  0.00    -0.289 N 
ATOM     10  C   UNL     1      21.739   1.161 -19.312  0.00  0.00    +0.113 C 
ATOM     11  C   UNL     1      22.993  -0.760 -20.407  0.00  0.00    +0.283 C 
ATOM     12  O   UNL     1      23.864  -1.044 -21.229  0.00  0.00    -0.267 OA
ENDROOT
BRANCH  11  13
ATOM     13  C   UNL     1      22.110  -1.784 -19.801  0.00  0.00    +0.194 A 
ATOM     14  O   UNL     1      22.709  -3.023 -19.654  0.00  0.00    -0.450 OA
ATOM     15  C   UNL     1      20.757  -2.066 -20.029  0.00  0.00    +0.008 A 
ATOM     16  C   UNL     1      22.021  -3.836 -20.491  0.00  0.00    +0.136 A 
ATOM     17  C   UNL     1      20.821  -3.237 -20.840  0.00  0.00    +0.024 A 
ATOM     18  C   UNL     1      19.510  -1.399 -19.589  0.00  0.00    +0.048 C 
ATOM     19  C   UNL     1      22.477  -5.054 -20.963  0.00  0.00    +0.047 A 
ATOM     20  C   UNL     1      19.997  -3.887 -21.771  0.00  0.00    +0.012 A 
ATOM     21  C   UNL     1      21.678  -5.656 -21.933  0.00  0.00    +0.004 A 
ATOM     22  C   UNL     1      20.468  -5.078 -22.342  0.00  0.00    +0.001 A 
ENDBRANCH  11  13
BRANCH   5  23
ATOM     23  C   UNL     1      22.401   2.867 -15.186  0.00  0.00    +0.020 A 
ATOM     24  C   UNL     1      21.930   1.951 -14.220  0.00  0.00    +0.142 A 
ATOM     25  C   UNL     1      21.666   4.014 -14.916  0.00  0.00    +0.116 A 
ATOM     26  N   UNL     1      20.967   2.450 -13.441  0.00  0.00    -0.179 NA
ATOM     27  N   UNL     1      20.835   3.712 -13.877  0.00  0.00    -0.274 N 
ATOM     28  C   UNL     1      19.883   4.586 -13.232  0.00  0.00    +0.172 C 
ENDBRANCH   5  23
BRANCH   1  30
ATOM     29  O   UNL     1      27.010   5.018 -16.043  0.00  0.00    -0.269 OA
ATOM     30  C   UNL     1      26.993   3.912 -16.581  0.00  0.00    +0.263 C 
ATOM     31  N   UNL     1      28.143   3.232 -16.913  0.00  0.00    -0.306 N 
ATOM     32  H   UNL     1      28.074   2.328 -17.299  0.00  0.00    +0.149 HD
BRANCH  31  33
ATOM     33  C   UNL     1      29.454   3.816 -16.706  0.00  0.00    +0.140 C 
BRANCH  33  34
ATOM     34  C   UNL     1      29.969   4.518 -17.933  0.00  0.00    -0.030 A 
ATOM     35  C   UNL     1      29.814   3.947 -19.196  0.00  0.00    +0.007 A 
ATOM     36  C   UNL     1      30.557   5.786 -17.847  0.00  0.00    +0.007 A 
ATOM     37  C   UNL     1      30.268   4.616 -20.337  0.00  0.00    +0.023 A 
ATOM     38  C   UNL     1      31.010   6.447 -19.000  0.00  0.00    +0.023 A 
ATOM     39  C   UNL     1      30.886   5.874 -20.271  0.00  0.00    +0.030 A 
BRANCH  39  40
ATOM     40  N   UNL     1      31.263   6.512 -21.443  0.00  0.00    -0.333 N 
ATOM     41  C   UNL     1      30.275   6.967 -22.429  0.00  0.00    +0.086 C 
ATOM     42  C   UNL     1      32.487   7.339 -21.441  0.00  0.00    +0.086 C 
ATOM     43  C   UNL     1      30.924   6.975 -23.834  0.00  0.00    -0.060 C 
ATOM     44  C   UNL     1      33.103   7.340 -22.860  0.00  0.00    -0.060 C 
ATOM     45  N   UNL     1      32.150   7.805 -23.897  0.00  0.00    +0.380 N 
ATOM     46  C   UNL     1      32.757   7.722 -25.223  0.00  0.00    -0.096 C 
ATOM     47  H   UNL     1      31.911   8.780 -23.721  0.00  0.00    -0.082 HD
ENDBRANCH  39  40
ENDBRANCH  33  34
ENDBRANCH  31  33
ENDBRANCH   1  30
TORSDOF 6
ENDMDL
MODEL 4
REMARK VINA RESULT:   -11.241      4.259      7.487
REMARK INTER + INTRA:         -16.479
REMARK INTER:                 -16.273
REMARK INTRA:                  -0.207
REMARK UNBOUND:                -1.296
REMARK  Name = CTX-1020521
REMARK  9 active torsions:
REMARK  status: ('A' for Active; 'I' for Inactive)
REMARK    1  A    between atoms: C_2  and  C_4
REMARK    2  A    between atoms: N_3  and  C_5
REMARK    3  A    between atoms: C_5  and  C_8
REMARK    4  A    between atoms: C_10  and  C_15
REMARK    5  A    between atoms: C_22  and  N_27
REMARK    6  A    between atoms: C_24  and  C_29
REMARK    7  A    between atoms: N_26  and  C_30
REMARK    8  A    between atoms: C_34  and  C_39
REMARK    9  A    between atoms: N_40  and  C_43
REMARK                            x       y       z     vdW  Elec       q    Type
REMARK                         _______ _______ _______ _____ _____    ______ ____
ROOT
ATOM      1  C   UNL     1      25.290   2.064 -17.271  0.00  0.00    +0.126 A 
ATOM      2  N   UNL     1      25.053   1.448 -18.463  0.00  0.00    -0.245 NA
ATOM      3  C   UNL     1      24.296   2.358 -16.340  0.00  0.00    +0.042 A 
ATOM      4  C   UNL     1      23.758   1.102 -18.736  0.00  0.00    +0.063 A 
ATOM      5  C   UNL     1      22.971   2.044 -16.628  0.00  0.00    -0.008 A 
ATOM      6  C   UNL     1      22.684   1.413 -17.861  0.00  0.00    -0.015 A 
ATOM      7  C   UNL     1      23.494   0.372 -20.072  0.00  0.00    +0.163 C 
ATOM      8  C   UNL     1      21.271   1.014 -18.236  0.00  0.00    +0.056 C 
ATOM      9  N   UNL     1      22.157  -0.232 -20.162  0.00  0.00    -0.289 N 
ATOM     10  C   UNL     1      21.082   0.635 -19.702  0.00  0.00    +0.113 C 
ATOM     11  C   UNL     1      21.977  -1.536 -20.675  0.00  0.00    +0.283 C 
ATOM     12  O   UNL     1      22.799  -2.015 -21.457  0.00  0.00    -0.267 OA
ENDROOT
BRANCH  11  13
ATOM     13  C   UNL     1      20.902  -2.347 -20.059  0.00  0.00    +0.194 A 
ATOM     14  O   UNL     1      19.629  -1.999 -20.476  0.00  0.00    -0.450 OA
ATOM     15  C   UNL     1      20.738  -2.784 -18.739  0.00  0.00    +0.008 A 
ATOM     16  C   UNL     1      19.029  -1.509 -19.365  0.00  0.00    +0.136 A 
ATOM     17  C   UNL     1      19.744  -1.891 -18.241  0.00  0.00    +0.024 A 
ATOM     18  C   UNL     1      21.371  -3.876 -17.962  0.00  0.00    +0.048 C 
ATOM     19  C   UNL     1      17.903  -0.704 -19.364  0.00  0.00    +0.047 A 
ATOM     20  C   UNL     1      19.328  -1.412 -16.991  0.00  0.00    +0.012 A 
ATOM     21  C   UNL     1      17.541  -0.185 -18.122  0.00  0.00    +0.004 A 
ATOM     22  C   UNL     1      18.247  -0.519 -16.958  0.00  0.00    +0.001 A 
ENDBRANCH  11  13
BRANCH   5  23
ATOM     23  C   UNL     1      21.952   2.375 -15.630  0.00  0.00    +0.020 A 
ATOM     24  C   UNL     1      20.966   1.605 -14.975  0.00  0.00    +0.142 A 
ATOM     25  C   UNL     1      21.800   3.632 -15.058  0.00  0.00    +0.116 A 
ATOM     26  N   UNL     1      20.234   2.307 -14.107  0.00  0.00    -0.179 NA
ATOM     27  N   UNL     1      20.771   3.535 -14.166  0.00  0.00    -0.274 N 
ATOM     28  C   UNL     1      20.244   4.579 -13.319  0.00  0.00    +0.172 C 
ENDBRANCH   5  23
BRANCH   1  30
ATOM     29  O   UNL     1      27.569   1.624 -16.779  0.00  0.00    -0.269 OA
ATOM     30  C   UNL     1      26.692   2.475 -16.913  0.00  0.00    +0.263 C 
ATOM     31  N   UNL     1      26.930   3.819 -16.728  0.00  0.00    -0.306 N 
ATOM     32  H   UNL     1      26.204   4.464 -16.895  0.00  0.00    +0.149 HD
BRANCH  31  33
ATOM     33  C   UNL     1      28.225   4.306 -16.296  0.00  0.00    +0.140 C 
BRANCH  33  34
ATOM     34  C   UNL     1      29.060   4.809 -17.442  0.00  0.00    -0.030 A 
ATOM     35  C   UNL     1      29.467   3.944 -18.458  0.00  0.00    +0.007 A 
ATOM     36  C   UNL     1      29.397   6.163 -17.551  0.00  0.00    +0.007 A 
ATOM     37  C   UNL     1      30.220   4.420 -19.536  0.00  0.00    +0.023 A 
ATOM     38  C   UNL     1      30.154   6.630 -18.637  0.00  0.00    +0.023 A 
ATOM     39  C   UNL     1      30.592   5.769 -19.651  0.00  0.00    +0.030 A 
BRANCH  39  40
ATOM     40  N   UNL     1      31.289   6.192 -20.771  0.00  0.00    -0.333 N 
ATOM     41  C   UNL     1      32.701   6.592 -20.699  0.00  0.00    +0.086 C 
ATOM     42  C   UNL     1      30.922   5.637 -22.089  0.00  0.00    +0.086 C 
ATOM     43  C   UNL     1      32.997   7.619 -21.819  0.00  0.00    -0.060 C 
ATOM     44  C   UNL     1      31.244   6.678 -23.187  0.00  0.00    -0.060 C 
ATOM     45  N   UNL     1      32.663   7.109 -23.170  0.00  0.00    +0.380 N 
ATOM     46  C   UNL     1      32.898   8.139 -24.178  0.00  0.00    -0.096 C 
ATOM     47  H   UNL     1      33.260   6.312 -23.390  0.00  0.00    -0.082 HD
ENDBRANCH  39  40
ENDBRANCH  33  34
ENDBRANCH  31  33
ENDBRANCH   1  30
TORSDOF 6
ENDMDL
MODEL 5
REMARK VINA RESULT:   -11.102      3.612      6.920
REMARK INTER + INTRA:         -16.292
REMARK INTER:                 -15.808
REMARK INTRA:                  -0.484
REMARK UNBOUND:                -1.296
REMARK  Name = CTX-1020521
REMARK  9 active torsions:
REMARK  status: ('A' for Active; 'I' for Inactive)
REMARK    1  A    between atoms: C_2  and  C_4
REMARK    2  A    between atoms: N_3  and  C_5
REMARK    3  A    between atoms: C_5  and  C_8
REMARK    4  A    between atoms: C_10  and  C_15
REMARK    5  A    between atoms: C_22  and  N_27
REMARK    6  A    between atoms: C_24  and  C_29
REMARK    7  A    between atoms: N_26  and  C_30
REMARK    8  A    between atoms: C_34  and  C_39
REMARK    9  A    between atoms: N_40  and  C_43
REMARK                            x       y       z     vdW  Elec       q    Type
REMARK                         _______ _______ _______ _____ _____    ______ ____
ROOT
ATOM      1  C   UNL     1      24.237   0.624 -21.643  0.00  0.00    +0.126 A 
ATOM      2  N   UNL     1      24.065   1.463 -20.582  0.00  0.00    -0.245 NA
ATOM      3  C   UNL     1      23.530  -0.564 -21.813  0.00  0.00    +0.042 A 
ATOM      4  C   UNL     1      23.135   1.096 -19.647  0.00  0.00    +0.063 A 
ATOM      5  C   UNL     1      22.612  -0.962 -20.847  0.00  0.00    -0.008 A 
ATOM      6  C   UNL     1      22.413  -0.123 -19.725  0.00  0.00    -0.015 A 
ATOM      7  C   UNL     1      22.915   2.063 -18.462  0.00  0.00    +0.163 C 
ATOM      8  C   UNL     1      21.411  -0.472 -18.644  0.00  0.00    +0.056 C 
ATOM      9  N   UNL     1      21.711   1.768 -17.673  0.00  0.00    -0.289 N 
ATOM     10  C   UNL     1      21.534   0.355 -17.367  0.00  0.00    +0.113 C 
ATOM     11  C   UNL     1      20.840   2.798 -17.253  0.00  0.00    +0.283 C 
ATOM     12  O   UNL     1      21.258   3.949 -17.121  0.00  0.00    -0.267 OA
ENDROOT
BRANCH  11  13
ATOM     13  C   UNL     1      19.398   2.467 -17.208  0.00  0.00    +0.194 A 
ATOM     14  O   UNL     1      18.783   2.804 -16.015  0.00  0.00    -0.450 OA
ATOM     15  C   UNL     1      18.712   1.330 -17.654  0.00  0.00    +0.008 A 
ATOM     16  C   UNL     1      18.426   1.618 -15.468  0.00  0.00    +0.136 A 
ATOM     17  C   UNL     1      18.459   0.628 -16.438  0.00  0.00    +0.024 A 
ATOM     18  C   UNL     1      18.299   0.878 -19.003  0.00  0.00    +0.048 C 
ATOM     19  C   UNL     1      18.125   1.420 -14.132  0.00  0.00    +0.047 A 
ATOM     20  C   UNL     1      18.200  -0.694 -16.052  0.00  0.00    +0.012 A 
ATOM     21  C   UNL     1      17.933   0.093 -13.752  0.00  0.00    +0.004 A 
ATOM     22  C   UNL     1      17.983  -0.948 -14.689  0.00  0.00    +0.001 A 
ENDBRANCH  11  13
BRANCH   5  23
ATOM     23  C   UNL     1      21.894  -2.221 -21.056  0.00  0.00    +0.020 A 
ATOM     24  C   UNL     1      20.591  -2.517 -21.514  0.00  0.00    +0.142 A 
ATOM     25  C   UNL     1      22.453  -3.478 -20.863  0.00  0.00    +0.116 A 
ATOM     26  N   UNL     1      20.333  -3.826 -21.569  0.00  0.00    -0.179 NA
ATOM     27  N   UNL     1      21.487  -4.389 -21.181  0.00  0.00    -0.274 N 
ATOM     28  C   UNL     1      21.595  -5.828 -21.147  0.00  0.00    +0.172 C 
ENDBRANCH   5  23
BRANCH   1  30
ATOM     29  O   UNL     1      26.161   0.186 -22.961  0.00  0.00    -0.269 OA
ATOM     30  C   UNL     1      25.247   0.967 -22.703  0.00  0.00    +0.263 C 
ATOM     31  N   UNL     1      25.110   2.181 -23.338  0.00  0.00    -0.306 N 
ATOM     32  H   UNL     1      24.334   2.750 -23.128  0.00  0.00    +0.149 HD
BRANCH  31  33
ATOM     33  C   UNL     1      26.082   2.642 -24.310  0.00  0.00    +0.140 C 
BRANCH  33  34
ATOM     34  C   UNL     1      27.177   3.462 -23.682  0.00  0.00    -0.030 A 
ATOM     35  C   UNL     1      27.950   2.940 -22.645  0.00  0.00    +0.007 A 
ATOM     36  C   UNL     1      27.488   4.740 -24.161  0.00  0.00    +0.007 A 
ATOM     37  C   UNL     1      28.984   3.695 -22.083  0.00  0.00    +0.023 A 
ATOM     38  C   UNL     1      28.528   5.489 -23.588  0.00  0.00    +0.023 A 
ATOM     39  C   UNL     1      29.295   4.989 -22.529  0.00  0.00    +0.030 A 
BRANCH  39  40
ATOM     40  N   UNL     1      30.369   5.664 -21.971  0.00  0.00    -0.333 N 
ATOM     41  C   UNL     1      31.302   6.447 -22.792  0.00  0.00    +0.086 C 
ATOM     42  C   UNL     1      30.243   6.187 -20.596  0.00  0.00    +0.086 C 
ATOM     43  C   UNL     1      32.685   6.481 -22.098  0.00  0.00    -0.060 C 
ATOM     44  C   UNL     1      31.642   6.224 -19.936  0.00  0.00    -0.060 C 
ATOM     45  N   UNL     1      32.623   7.016 -20.717  0.00  0.00    +0.380 N 
ATOM     46  C   UNL     1      33.940   6.962 -20.088  0.00  0.00    -0.096 C 
ATOM     47  H   UNL     1      32.326   7.991 -20.742  0.00  0.00    -0.082 HD
ENDBRANCH  39  40
ENDBRANCH  33  34
ENDBRANCH  31  33
ENDBRANCH   1  30
TORSDOF 6
ENDMDL
