MODEL 1
REMARK VINA RESULT:   -11.223      0.000      0.000
REMARK INTER + INTRA:         -14.476
REMARK INTER:                 -13.848
REMARK INTRA:                  -0.628
REMARK UNBOUND:                -0.628
REMARK  Name = CTX-1020516
REMARK  5 active torsions:
REMARK  status: ('A' for Active; 'I' for Inactive)
REMARK    1  A    between atoms: C_2  and  C_4
REMARK    2  A    between atoms: N_9  and  C_12
REMARK    3  A    between atoms: C_12  and  C_14
REMARK    4  A    between atoms: C_15  and  C_19
REMARK    5  A    between atoms: C_23  and  C_27
REMARK                            x       y       z     vdW  Elec       q    Type
REMARK                         _______ _______ _______ _____ _____    ______ ____
ROOT
ATOM      1  S   UNL     1      24.514   0.678 -23.170  0.00  0.00    -0.088 S 
ATOM      2  C   UNL     1      25.360   2.111 -22.759  0.00  0.00    +0.074 A 
ATOM      3  C   UNL     1      23.998   0.436 -21.564  0.00  0.00    -0.003 A 
ATOM      4  C   UNL     1      25.249   2.371 -21.400  0.00  0.00    +0.026 A 
ATOM      5  C   UNL     1      24.457   1.403 -20.691  0.00  0.00    -0.019 A 
ATOM      6  C   UNL     1      23.096  -0.689 -21.168  0.00  0.00    +0.062 C 
ATOM      7  C   UNL     1      24.135   1.403 -19.212  0.00  0.00    +0.144 C 
ATOM      8  C   UNL     1      23.060  -0.818 -19.636  0.00  0.00    +0.113 C 
ATOM      9  N   UNL     1      23.029   0.479 -18.949  0.00  0.00    -0.290 N 
ATOM     10  C   UNL     1      22.163   0.732 -17.880  0.00  0.00    +0.283 C 
ATOM     11  O   UNL     1      22.513   1.413 -16.918  0.00  0.00    -0.267 OA
ENDROOT
BRANCH  10  12
ATOM     12  C   UNL     1      20.752   0.378 -18.127  0.00  0.00    +0.194 A 
ATOM     13  O   UNL     1      19.894   1.461 -18.070  0.00  0.00    -0.450 OA
ATOM     14  C   UNL     1      20.014  -0.719 -17.663  0.00  0.00    +0.008 A 
ATOM     15  C   UNL     1      19.166   1.227 -16.947  0.00  0.00    +0.136 A 
ATOM     16  C   UNL     1      19.249  -0.119 -16.616  0.00  0.00    +0.024 A 
ATOM     17  C   UNL     1      20.165  -2.163 -17.951  0.00  0.00    +0.048 C 
ATOM     18  C   UNL     1      18.540   2.211 -16.204  0.00  0.00    +0.047 A 
ATOM     19  C   UNL     1      18.656  -0.537 -15.413  0.00  0.00    +0.012 A 
ATOM     20  C   UNL     1      18.052   1.794 -14.966  0.00  0.00    +0.004 A 
ATOM     21  C   UNL     1      18.113   0.451 -14.574  0.00  0.00    +0.001 A 
ENDBRANCH  10  12
BRANCH   2  22
ATOM     22  C   UNL     1      26.087   2.918 -23.739  0.00  0.00    +0.251 C 
ATOM     23  O   UNL     1      27.217   3.347 -23.521  0.00  0.00    -0.270 OA
ATOM     24  N   UNL     1      25.449   3.183 -24.933  0.00  0.00    -0.307 N 
ATOM     25  H   UNL     1      24.532   2.847 -25.060  0.00  0.00    +0.149 HD
BRANCH  24  26
ATOM     26  C   UNL     1      26.069   3.939 -26.010  0.00  0.00    +0.139 C 
BRANCH  26  27
ATOM     27  C   UNL     1      26.037   3.202 -27.322  0.00  0.00    -0.030 A 
ATOM     28  C   UNL     1      25.314   3.709 -28.413  0.00  0.00    +0.005 A 
ATOM     29  C   UNL     1      26.792   2.033 -27.503  0.00  0.00    +0.005 A 
ATOM     30  C   UNL     1      25.336   3.057 -29.648  0.00  0.00    +0.000 A 
ATOM     31  C   UNL     1      26.817   1.384 -28.740  0.00  0.00    +0.000 A 
ATOM     32  C   UNL     1      26.088   1.895 -29.812  0.00  0.00    +0.000 A 
ENDBRANCH  26  27
ENDBRANCH  24  26
ENDBRANCH   2  22
TORSDOF 4
ENDMDL
MODEL 2
REMARK VINA RESULT:   -10.582      1.366      2.154
REMARK INTER + INTRA:         -13.684
REMARK INTER:                 -13.477
REMARK INTRA:                  -0.207
REMARK UNBOUND:                -0.628
REMARK  Name = CTX-1020516
REMARK  5 active torsions:
REMARK  status: ('A' for Active; 'I' for Inactive)
REMARK    1  A    between atoms: C_2  and  C_4
REMARK    2  A    between atoms: N_9  and  C_12
REMARK    3  A    between atoms: C_12  and  C_14
REMARK    4  A    between atoms: C_15  and  C_19
REMARK    5  A    between atoms: C_23  and  C_27
REMARK                            x       y       z     vdW  Elec       q    Type
REMARK                         _______ _______ _______ _____ _____    ______ ____
ROOT
ATOM      1  S   UNL     1      24.000   0.788 -22.316  0.00  0.00    -0.088 S 
ATOM      2  C   UNL     1      25.302   1.838 -21.939  0.00  0.00    +0.074 A 
ATOM      3  C   UNL     1      23.499   0.709 -20.689  0.00  0.00    -0.003 A 
ATOM      4  C   UNL     1      25.342   2.096 -20.576  0.00  0.00    +0.026 A 
ATOM      5  C   UNL     1      24.296   1.445 -19.835  0.00  0.00    -0.019 A 
ATOM      6  C   UNL     1      22.282  -0.047 -20.256  0.00  0.00    +0.062 C 
ATOM      7  C   UNL     1      24.054   1.528 -18.343  0.00  0.00    +0.144 C 
ATOM      8  C   UNL     1      22.268  -0.183 -18.724  0.00  0.00    +0.113 C 
ATOM      9  N   UNL     1      22.712   1.034 -18.033  0.00  0.00    -0.290 N 
ATOM     10  C   UNL     1      22.028   1.549 -16.926  0.00  0.00    +0.283 C 
ATOM     11  O   UNL     1      22.630   2.052 -15.978  0.00  0.00    -0.267 OA
ENDROOT
BRANCH  10  12
ATOM     12  C   UNL     1      20.573   1.704 -17.110  0.00  0.00    +0.194 A 
ATOM     13  O   UNL     1      19.822   1.020 -16.172  0.00  0.00    -0.450 OA
ATOM     14  C   UNL     1      19.818   1.687 -18.290  0.00  0.00    +0.008 A 
ATOM     15  C   UNL     1      19.237   0.030 -16.897  0.00  0.00    +0.136 A 
ATOM     16  C   UNL     1      19.255   0.374 -18.243  0.00  0.00    +0.024 A 
ATOM     17  C   UNL     1      19.810   2.626 -19.434  0.00  0.00    +0.048 C 
ATOM     18  C   UNL     1      18.801  -1.170 -16.369  0.00  0.00    +0.047 A 
ATOM     19  C   UNL     1      18.798  -0.578 -19.169  0.00  0.00    +0.012 A 
ATOM     20  C   UNL     1      18.454  -2.137 -17.312  0.00  0.00    +0.004 A 
ATOM     21  C   UNL     1      18.458  -1.852 -18.683  0.00  0.00    +0.001 A 
ENDBRANCH  10  12
BRANCH   2  22
ATOM     22  C   UNL     1      26.220   2.365 -22.949  0.00  0.00    +0.251 C 
ATOM     23  O   UNL     1      27.427   2.460 -22.746  0.00  0.00    -0.270 OA
ATOM     24  N   UNL     1      25.673   2.757 -24.153  0.00  0.00    -0.307 N 
ATOM     25  H   UNL     1      24.697   2.693 -24.269  0.00  0.00    +0.149 HD
BRANCH  24  26
ATOM     26  C   UNL     1      26.473   3.261 -25.258  0.00  0.00    +0.139 C 
BRANCH  26  27
ATOM     27  C   UNL     1      26.450   2.345 -26.451  0.00  0.00    -0.030 A 
ATOM     28  C   UNL     1      26.173   2.842 -27.734  0.00  0.00    +0.005 A 
ATOM     29  C   UNL     1      26.780   0.987 -26.315  0.00  0.00    +0.005 A 
ATOM     30  C   UNL     1      26.214   2.002 -28.849  0.00  0.00    +0.000 A 
ATOM     31  C   UNL     1      26.825   0.149 -27.431  0.00  0.00    +0.000 A 
ATOM     32  C   UNL     1      26.541   0.655 -28.698  0.00  0.00    +0.000 A 
ENDBRANCH  26  27
ENDBRANCH  24  26
ENDBRANCH   2  22
TORSDOF 4
ENDMDL
MODEL 3
REMARK VINA RESULT:    -9.517      2.773      4.043
REMARK INTER + INTRA:         -12.370
REMARK INTER:                 -12.134
REMARK INTRA:                  -0.236
REMARK UNBOUND:                -0.628
REMARK  Name = CTX-1020516
REMARK  5 active torsions:
REMARK  status: ('A' for Active; 'I' for Inactive)
REMARK    1  A    between atoms: C_2  and  C_4
REMARK    2  A    between atoms: N_9  and  C_12
REMARK    3  A    between atoms: C_12  and  C_14
REMARK    4  A    between atoms: C_15  and  C_19
REMARK    5  A    between atoms: C_23  and  C_27
REMARK                            x       y       z     vdW  Elec       q    Type
REMARK                         _______ _______ _______ _____ _____    ______ ____
ROOT
ATOM      1  S   UNL     1      23.819   0.652 -22.200  0.00  0.00    -0.088 S 
ATOM      2  C   UNL     1      25.155   1.673 -21.865  0.00  0.00    +0.074 A 
ATOM      3  C   UNL     1      23.317   0.655 -20.571  0.00  0.00    -0.003 A 
ATOM      4  C   UNL     1      25.205   1.984 -20.514  0.00  0.00    +0.026 A 
ATOM      5  C   UNL     1      24.140   1.398 -19.747  0.00  0.00    -0.019 A 
ATOM      6  C   UNL     1      22.077  -0.042 -20.108  0.00  0.00    +0.062 C 
ATOM      7  C   UNL     1      23.903   1.550 -18.260  0.00  0.00    +0.144 C 
ATOM      8  C   UNL     1      22.060  -0.116 -18.571  0.00  0.00    +0.113 C 
ATOM      9  N   UNL     1      22.544   1.113 -17.931  0.00  0.00    -0.290 N 
ATOM     10  C   UNL     1      21.880   1.695 -16.845  0.00  0.00    +0.283 C 
ATOM     11  O   UNL     1      22.499   2.216 -15.919  0.00  0.00    -0.267 OA
ENDROOT
BRANCH  10  12
ATOM     12  C   UNL     1      20.430   1.889 -17.036  0.00  0.00    +0.194 A 
ATOM     13  O   UNL     1      19.658   1.272 -16.069  0.00  0.00    -0.450 OA
ATOM     14  C   UNL     1      19.673   1.846 -18.214  0.00  0.00    +0.008 A 
ATOM     15  C   UNL     1      19.040   0.272 -16.751  0.00  0.00    +0.136 A 
ATOM     16  C   UNL     1      19.067   0.557 -18.110  0.00  0.00    +0.024 A 
ATOM     17  C   UNL     1      19.694   2.735 -19.398  0.00  0.00    +0.048 C 
ATOM     18  C   UNL     1      18.565  -0.889 -16.171  0.00  0.00    +0.047 A 
ATOM     19  C   UNL     1      18.578  -0.419 -18.994  0.00  0.00    +0.012 A 
ATOM     20  C   UNL     1      18.184  -1.884 -17.071  0.00  0.00    +0.004 A 
ATOM     21  C   UNL     1      18.196  -1.659 -18.453  0.00  0.00    +0.001 A 
ENDBRANCH  10  12
BRANCH   2  22
ATOM     22  C   UNL     1      26.089   2.128 -22.895  0.00  0.00    +0.251 C 
ATOM     23  O   UNL     1      26.447   1.402 -23.818  0.00  0.00    -0.270 OA
ATOM     24  N   UNL     1      26.560   3.420 -22.790  0.00  0.00    -0.307 N 
ATOM     25  H   UNL     1      26.273   3.964 -22.020  0.00  0.00    +0.149 HD
BRANCH  24  26
ATOM     26  C   UNL     1      27.462   4.016 -23.764  0.00  0.00    +0.139 C 
BRANCH  26  27
ATOM     27  C   UNL     1      28.739   4.507 -23.140  0.00  0.00    -0.030 A 
ATOM     28  C   UNL     1      29.296   5.738 -23.519  0.00  0.00    +0.005 A 
ATOM     29  C   UNL     1      29.359   3.778 -22.113  0.00  0.00    +0.005 A 
ATOM     30  C   UNL     1      30.449   6.222 -22.894  0.00  0.00    +0.000 A 
ATOM     31  C   UNL     1      30.509   4.265 -21.487  0.00  0.00    +0.000 A 
ATOM     32  C   UNL     1      31.054   5.486 -21.878  0.00  0.00    +0.000 A 
ENDBRANCH  26  27
ENDBRANCH  24  26
ENDBRANCH   2  22
TORSDOF 4
ENDMDL
MODEL 4
REMARK VINA RESULT:    -9.513      5.148      6.539
REMARK INTER + INTRA:         -12.365
REMARK INTER:                 -11.647
REMARK INTRA:                  -0.718
REMARK UNBOUND:                -0.628
REMARK  Name = CTX-1020516
REMARK  5 active torsions:
REMARK  status: ('A' for Active; 'I' for Inactive)
REMARK    1  A    between atoms: C_2  and  C_4
REMARK    2  A    between atoms: N_9  and  C_12
REMARK    3  A    between atoms: C_12  and  C_14
REMARK    4  A    between atoms: C_15  and  C_19
REMARK    5  A    between atoms: C_23  and  C_27
REMARK                            x       y       z     vdW  Elec       q    Type
REMARK                         _______ _______ _______ _____ _____    ______ ____
ROOT
ATOM      1  S   UNL     1      29.088   2.680 -16.458  0.00  0.00    -0.088 S 
ATOM      2  C   UNL     1      29.112   4.360 -16.802  0.00  0.00    +0.074 A 
ATOM      3  C   UNL     1      27.461   2.734 -15.954  0.00  0.00    -0.003 A 
ATOM      4  C   UNL     1      27.883   4.935 -16.510  0.00  0.00    +0.026 A 
ATOM      5  C   UNL     1      26.911   3.999 -16.016  0.00  0.00    -0.019 A 
ATOM      6  C   UNL     1      26.704   1.511 -15.539  0.00  0.00    +0.062 C 
ATOM      7  C   UNL     1      25.481   4.301 -15.617  0.00  0.00    +0.144 C 
ATOM      8  C   UNL     1      25.385   1.917 -14.860  0.00  0.00    +0.113 C 
ATOM      9  N   UNL     1      24.725   3.052 -15.517  0.00  0.00    -0.290 N 
ATOM     10  C   UNL     1      23.350   3.058 -15.781  0.00  0.00    +0.283 C 
ATOM     11  O   UNL     1      22.681   4.084 -15.670  0.00  0.00    -0.267 OA
ENDROOT
BRANCH  10  12
ATOM     12  C   UNL     1      22.843   1.852 -16.463  0.00  0.00    +0.194 A 
ATOM     13  O   UNL     1      23.208   1.777 -17.795  0.00  0.00    -0.450 OA
ATOM     14  C   UNL     1      21.585   1.243 -16.378  0.00  0.00    +0.008 A 
ATOM     15  C   UNL     1      22.034   1.955 -18.454  0.00  0.00    +0.136 A 
ATOM     16  C   UNL     1      20.978   1.683 -17.594  0.00  0.00    +0.024 A 
ATOM     17  C   UNL     1      20.924   0.569 -15.237  0.00  0.00    +0.048 C 
ATOM     18  C   UNL     1      21.929   2.438 -19.745  0.00  0.00    +0.047 A 
ATOM     19  C   UNL     1      19.674   1.924 -18.059  0.00  0.00    +0.012 A 
ATOM     20  C   UNL     1      20.636   2.771 -20.147  0.00  0.00    +0.004 A 
ATOM     21  C   UNL     1      19.531   2.526 -19.321  0.00  0.00    +0.001 A 
ENDBRANCH  10  12
BRANCH   2  22
ATOM     22  C   UNL     1      30.289   5.050 -17.329  0.00  0.00    +0.251 C 
ATOM     23  O   UNL     1      31.324   5.163 -16.679  0.00  0.00    -0.270 OA
ATOM     24  N   UNL     1      30.192   5.577 -18.600  0.00  0.00    -0.307 N 
ATOM     25  H   UNL     1      29.335   5.492 -19.080  0.00  0.00    +0.149 HD
BRANCH  24  26
ATOM     26  C   UNL     1      31.296   6.253 -19.263  0.00  0.00    +0.139 C 
BRANCH  26  27
ATOM     27  C   UNL     1      31.127   6.304 -20.757  0.00  0.00    -0.030 A 
ATOM     28  C   UNL     1      29.899   5.974 -21.352  0.00  0.00    +0.005 A 
ATOM     29  C   UNL     1      32.171   6.756 -21.579  0.00  0.00    +0.005 A 
ATOM     30  C   UNL     1      29.725   6.082 -22.734  0.00  0.00    +0.000 A 
ATOM     31  C   UNL     1      31.994   6.867 -22.960  0.00  0.00    +0.000 A 
ATOM     32  C   UNL     1      30.772   6.529 -23.538  0.00  0.00    +0.000 A 
ENDBRANCH  26  27
ENDBRANCH  24  26
ENDBRANCH   2  22
TORSDOF 4
ENDMDL
MODEL 5
REMARK VINA RESULT:    -9.458      5.201      6.244
REMARK INTER + INTRA:         -12.297
REMARK INTER:                 -12.327
REMARK INTRA:                   0.030
REMARK UNBOUND:                -0.628
REMARK  Name = CTX-1020516
REMARK  5 active torsions:
REMARK  status: ('A' for Active; 'I' for Inactive)
REMARK    1  A    between atoms: C_2  and  C_4
REMARK    2  A    between atoms: N_9  and  C_12
REMARK    3  A    between atoms: C_12  and  C_14
REMARK    4  A    between atoms: C_15  and  C_19
REMARK    5  A    between atoms: C_23  and  C_27
REMARK                            x       y       z     vdW  Elec       q    Type
REMARK                         _______ _______ _______ _____ _____    ______ ____
ROOT
ATOM      1  S   UNL     1      25.725   2.389 -17.903  0.00  0.00    -0.088 S 
ATOM      2  C   UNL     1      26.238   3.590 -16.793  0.00  0.00    +0.074 A 
ATOM      3  C   UNL     1      24.206   2.237 -17.147  0.00  0.00    -0.003 A 
ATOM      4  C   UNL     1      25.247   3.842 -15.854  0.00  0.00    +0.026 A 
ATOM      5  C   UNL     1      24.056   3.061 -16.048  0.00  0.00    -0.019 A 
ATOM      6  C   UNL     1      23.133   1.332 -17.666  0.00  0.00    +0.062 C 
ATOM      7  C   UNL     1      22.796   3.103 -15.210  0.00  0.00    +0.144 C 
ATOM      8  C   UNL     1      22.018   1.184 -16.617  0.00  0.00    +0.113 C 
ATOM      9  N   UNL     1      21.705   2.442 -15.929  0.00  0.00    -0.290 N 
ATOM     10  C   UNL     1      20.387   2.860 -15.711  0.00  0.00    +0.283 C 
ATOM     11  O   UNL     1      20.058   3.428 -14.671  0.00  0.00    -0.267 OA
ENDROOT
BRANCH  10  12
ATOM     12  C   UNL     1      19.521   2.833 -16.905  0.00  0.00    +0.194 A 
ATOM     13  O   UNL     1      18.256   2.332 -16.659  0.00  0.00    -0.450 OA
ATOM     14  C   UNL     1      19.829   2.462 -18.220  0.00  0.00    +0.008 A 
ATOM     15  C   UNL     1      18.251   1.148 -17.324  0.00  0.00    +0.136 A 
ATOM     16  C   UNL     1      19.255   1.155 -18.284  0.00  0.00    +0.024 A 
ATOM     17  C   UNL     1      20.740   3.091 -19.203  0.00  0.00    +0.048 C 
ATOM     18  C   UNL     1      17.438   0.077 -17.005  0.00  0.00    +0.047 A 
ATOM     19  C   UNL     1      19.486  -0.031 -19.000  0.00  0.00    +0.012 A 
ATOM     20  C   UNL     1      17.754  -1.117 -17.651  0.00  0.00    +0.004 A 
ATOM     21  C   UNL     1      18.761  -1.174 -18.624  0.00  0.00    +0.001 A 
ENDBRANCH  10  12
BRANCH   2  22
ATOM     22  C   UNL     1      27.549   4.235 -16.863  0.00  0.00    +0.251 C 
ATOM     23  O   UNL     1      27.763   5.335 -16.361  0.00  0.00    -0.270 OA
ATOM     24  N   UNL     1      28.550   3.553 -17.524  0.00  0.00    -0.307 N 
ATOM     25  H   UNL     1      28.334   2.686 -17.939  0.00  0.00    +0.149 HD
BRANCH  24  26
ATOM     26  C   UNL     1      29.910   4.058 -17.636  0.00  0.00    +0.139 C 
BRANCH  26  27
ATOM     27  C   UNL     1      30.185   4.677 -18.978  0.00  0.00    -0.030 A 
ATOM     28  C   UNL     1      30.040   3.930 -20.158  0.00  0.00    +0.005 A 
ATOM     29  C   UNL     1      30.520   6.036 -19.083  0.00  0.00    +0.005 A 
ATOM     30  C   UNL     1      30.235   4.523 -21.407  0.00  0.00    +0.000 A 
ATOM     31  C   UNL     1      30.711   6.629 -20.333  0.00  0.00    +0.000 A 
ATOM     32  C   UNL     1      30.570   5.873 -21.495  0.00  0.00    +0.000 A 
ENDBRANCH  26  27
ENDBRANCH  24  26
ENDBRANCH   2  22
TORSDOF 4
ENDMDL
