MODEL 1
REMARK VINA RESULT:   -11.451      0.000      0.000
REMARK INTER + INTRA:         -15.556
REMARK INTER:                 -14.798
REMARK INTRA:                  -0.758
REMARK UNBOUND:                -0.758
REMARK  Name = CTX-1020456
REMARK  6 active torsions:
REMARK  status: ('A' for Active; 'I' for Inactive)
REMARK    1  A    between atoms: C_3  and  C_6
REMARK    2  A    between atoms: C_20  and  C_22
REMARK    3  A    between atoms: N_25  and  C_26
REMARK    4  A    between atoms: C_26  and  C_27
REMARK    5  A    between atoms: C_32  and  N_33
REMARK    6  A    between atoms: N_38  and  C_39
REMARK                            x       y       z     vdW  Elec       q    Type
REMARK                         _______ _______ _______ _____ _____    ______ ____
ROOT
ATOM      1  C   UNL     1      26.614   2.729 -24.562  0.00  0.00    +0.255 C 
ATOM      2  O   UNL     1      25.878   1.950 -23.934  0.00  0.00    -0.269 OA
ATOM      3  N   UNL     1      27.694   3.275 -23.771  0.00  0.00    -0.291 N 
ATOM      4  C   UNL     1      28.886   4.120 -24.139  0.00  0.00    +0.163 C 
ATOM      5  C   UNL     1      27.525   2.891 -22.364  0.00  0.00    +0.113 C 
ATOM      6  C   UNL     1      29.747   4.724 -22.973  0.00  0.00    +0.063 A 
ATOM      7  C   UNL     1      28.604   3.154 -21.349  0.00  0.00    +0.056 C 
ATOM      8  N   UNL     1      30.749   5.654 -23.229  0.00  0.00    -0.245 NA
ATOM      9  C   UNL     1      29.537   4.259 -21.670  0.00  0.00    -0.023 A 
ATOM     10  C   UNL     1      31.500   6.093 -22.148  0.00  0.00    +0.126 A 
ATOM     11  C   UNL     1      30.303   4.747 -20.605  0.00  0.00    +0.008 A 
ATOM     12  C   UNL     1      31.291   5.675 -20.838  0.00  0.00    +0.033 A 
ENDROOT
BRANCH   1  15
ATOM     13 CL   UNL     1      27.452   0.663 -26.978  0.00  0.00    -0.082 Cl
ATOM     14  C   UNL     1      26.516   2.123 -27.041  0.00  0.00    +0.068 A 
ATOM     15  C   UNL     1      26.221   2.985 -25.968  0.00  0.00    +0.093 A 
ATOM     16  C   UNL     1      25.946   2.500 -28.311  0.00  0.00    +0.008 A 
ATOM     17  S   UNL     1      25.320   4.307 -26.556  0.00  0.00    -0.082 S 
ATOM     18  C   UNL     1      25.256   3.701 -28.189  0.00  0.00    +0.021 A 
ATOM     19  C   UNL     1      25.974   1.860 -29.591  0.00  0.00    +0.010 A 
ATOM     20  C   UNL     1      24.614   4.277 -29.316  0.00  0.00    +0.016 A 
ATOM     21  C   UNL     1      25.326   2.421 -30.699  0.00  0.00    +0.001 A 
ATOM     22  C   UNL     1      24.655   3.624 -30.558  0.00  0.00    +0.001 A 
ENDBRANCH   1  15
BRANCH  10  23
ATOM     23  C   UNL     1      32.660   7.056 -22.279  0.00  0.00    +0.263 C 
ATOM     24  O   UNL     1      33.175   7.526 -21.261  0.00  0.00    -0.269 OA
ATOM     25  N   UNL     1      33.125   7.410 -23.520  0.00  0.00    -0.306 N 
ATOM     26  H   UNL     1      32.709   7.021 -24.324  0.00  0.00    +0.149 HD
BRANCH  25  27
ATOM     27  C   UNL     1      34.226   8.356 -23.664  0.00  0.00    +0.140 C 
BRANCH  27  28
ATOM     28  C   UNL     1      34.854   8.280 -25.029  0.00  0.00    -0.030 A 
ATOM     29  C   UNL     1      36.234   8.414 -25.188  0.00  0.00    +0.007 A 
ATOM     30  C   UNL     1      34.079   8.074 -26.169  0.00  0.00    +0.007 A 
ATOM     31  C   UNL     1      36.806   8.446 -26.467  0.00  0.00    +0.023 A 
ATOM     32  C   UNL     1      34.666   8.087 -27.442  0.00  0.00    +0.023 A 
ATOM     33  C   UNL     1      36.037   8.319 -27.635  0.00  0.00    +0.030 A 
BRANCH  33  34
ATOM     34  N   UNL     1      36.590   8.487 -28.892  0.00  0.00    -0.333 N 
ATOM     35  C   UNL     1      37.936   8.000 -29.242  0.00  0.00    +0.086 C 
ATOM     36  C   UNL     1      35.775   8.837 -30.069  0.00  0.00    +0.086 C 
ATOM     37  C   UNL     1      38.653   9.026 -30.154  0.00  0.00    -0.060 C 
ATOM     38  C   UNL     1      36.540   9.841 -30.963  0.00  0.00    -0.060 C 
ATOM     39  N   UNL     1      37.871   9.343 -31.371  0.00  0.00    +0.380 N 
ATOM     40  C   UNL     1      38.562  10.334 -32.191  0.00  0.00    -0.096 C 
ATOM     41  H   UNL     1      37.765   8.499 -31.935  0.00  0.00    -0.082 HD
ENDBRANCH  33  34
ENDBRANCH  27  28
ENDBRANCH  25  27
ENDBRANCH  10  23
TORSDOF 5
ENDMDL
MODEL 2
REMARK VINA RESULT:   -11.132      7.263     10.355
REMARK INTER + INTRA:         -15.143
REMARK INTER:                 -14.416
REMARK INTRA:                  -0.728
REMARK UNBOUND:                -0.758
REMARK  Name = CTX-1020456
REMARK  6 active torsions:
REMARK  status: ('A' for Active; 'I' for Inactive)
REMARK    1  A    between atoms: C_3  and  C_6
REMARK    2  A    between atoms: C_20  and  C_22
REMARK    3  A    between atoms: N_25  and  C_26
REMARK    4  A    between atoms: C_26  and  C_27
REMARK    5  A    between atoms: C_32  and  N_33
REMARK    6  A    between atoms: N_38  and  C_39
REMARK                            x       y       z     vdW  Elec       q    Type
REMARK                         _______ _______ _______ _____ _____    ______ ____
ROOT
ATOM      1  C   UNL     1      20.141  -0.618 -19.123  0.00  0.00    +0.255 C 
ATOM      2  O   UNL     1      18.933  -0.366 -19.266  0.00  0.00    -0.269 OA
ATOM      3  N   UNL     1      20.859   0.384 -18.368  0.00  0.00    -0.291 N 
ATOM      4  C   UNL     1      22.267   0.427 -17.834  0.00  0.00    +0.163 C 
ATOM      5  C   UNL     1      19.988   1.540 -18.119  0.00  0.00    +0.113 C 
ATOM      6  C   UNL     1      22.789   1.785 -17.242  0.00  0.00    +0.063 A 
ATOM      7  C   UNL     1      20.409   2.647 -17.191  0.00  0.00    +0.056 C 
ATOM      8  N   UNL     1      24.125   1.951 -16.896  0.00  0.00    -0.245 NA
ATOM      9  C   UNL     1      21.868   2.811 -17.002  0.00  0.00    -0.023 A 
ATOM     10  C   UNL     1      24.490   3.162 -16.327  0.00  0.00    +0.126 A 
ATOM     11  C   UNL     1      22.284   4.027 -16.447  0.00  0.00    +0.008 A 
ATOM     12  C   UNL     1      23.604   4.213 -16.108  0.00  0.00    +0.033 A 
ENDROOT
BRANCH   1  15
ATOM     13 CL   UNL     1      20.397  -3.453 -17.477  0.00  0.00    -0.082 Cl
ATOM     14  C   UNL     1      20.715  -3.107 -19.147  0.00  0.00    +0.068 A 
ATOM     15  C   UNL     1      20.618  -1.855 -19.785  0.00  0.00    +0.093 A 
ATOM     16  C   UNL     1      21.095  -4.207 -19.999  0.00  0.00    +0.008 A 
ATOM     17  S   UNL     1      21.089  -2.030 -21.414  0.00  0.00    -0.082 S 
ATOM     18  C   UNL     1      21.338  -3.751 -21.290  0.00  0.00    +0.021 A 
ATOM     19  C   UNL     1      21.238  -5.605 -19.735  0.00  0.00    +0.010 A 
ATOM     20  C   UNL     1      21.736  -4.656 -22.308  0.00  0.00    +0.016 A 
ATOM     21  C   UNL     1      21.614  -6.501 -20.744  0.00  0.00    +0.001 A 
ATOM     22  C   UNL     1      21.864  -6.024 -22.020  0.00  0.00    +0.001 A 
ENDBRANCH   1  15
BRANCH  10  23
ATOM     23  C   UNL     1      25.891   3.466 -15.845  0.00  0.00    +0.263 C 
ATOM     24  O   UNL     1      26.188   3.246 -14.668  0.00  0.00    -0.269 OA
ATOM     25  N   UNL     1      26.818   3.992 -16.709  0.00  0.00    -0.306 N 
ATOM     26  H   UNL     1      26.569   4.155 -17.648  0.00  0.00    +0.149 HD
BRANCH  25  27
ATOM     27  C   UNL     1      28.166   4.313 -16.254  0.00  0.00    +0.140 C 
BRANCH  27  28
ATOM     28  C   UNL     1      29.038   4.795 -17.382  0.00  0.00    -0.030 A 
ATOM     29  C   UNL     1      29.444   6.128 -17.449  0.00  0.00    +0.007 A 
ATOM     30  C   UNL     1      29.462   3.927 -18.387  0.00  0.00    +0.007 A 
ATOM     31  C   UNL     1      30.169   6.599 -18.553  0.00  0.00    +0.023 A 
ATOM     32  C   UNL     1      30.204   4.407 -19.475  0.00  0.00    +0.023 A 
ATOM     33  C   UNL     1      30.542   5.762 -19.616  0.00  0.00    +0.030 A 
BRANCH  33  34
ATOM     34  N   UNL     1      31.136   6.261 -20.762  0.00  0.00    -0.333 N 
ATOM     35  C   UNL     1      32.475   5.840 -21.212  0.00  0.00    +0.086 C 
ATOM     36  C   UNL     1      30.367   6.965 -21.804  0.00  0.00    +0.086 C 
ATOM     37  C   UNL     1      33.251   7.054 -21.779  0.00  0.00    -0.060 C 
ATOM     38  C   UNL     1      31.191   8.151 -22.358  0.00  0.00    -0.060 C 
ATOM     39  N   UNL     1      32.516   7.737 -22.867  0.00  0.00    +0.380 N 
ATOM     40  C   UNL     1      33.264   8.893 -23.355  0.00  0.00    -0.096 C 
ATOM     41  H   UNL     1      32.399   7.096 -23.652  0.00  0.00    -0.082 HD
ENDBRANCH  33  34
ENDBRANCH  27  28
ENDBRANCH  25  27
ENDBRANCH  10  23
TORSDOF 5
ENDMDL
MODEL 3
REMARK VINA RESULT:   -10.142      5.400     13.294
REMARK INTER + INTRA:         -13.864
REMARK INTER:                 -12.987
REMARK INTRA:                  -0.877
REMARK UNBOUND:                -0.758
REMARK  Name = CTX-1020456
REMARK  6 active torsions:
REMARK  status: ('A' for Active; 'I' for Inactive)
REMARK    1  A    between atoms: C_3  and  C_6
REMARK    2  A    between atoms: C_20  and  C_22
REMARK    3  A    between atoms: N_25  and  C_26
REMARK    4  A    between atoms: C_26  and  C_27
REMARK    5  A    between atoms: C_32  and  N_33
REMARK    6  A    between atoms: N_38  and  C_39
REMARK                            x       y       z     vdW  Elec       q    Type
REMARK                         _______ _______ _______ _____ _____    ______ ____
ROOT
ATOM      1  C   UNL     1      38.893  10.762 -28.817  0.00  0.00    +0.255 C 
ATOM      2  O   UNL     1      39.061  10.559 -30.031  0.00  0.00    -0.269 OA
ATOM      3  N   UNL     1      37.805   9.999 -28.244  0.00  0.00    -0.291 N 
ATOM      4  C   UNL     1      37.342   9.815 -26.823  0.00  0.00    +0.163 C 
ATOM      5  C   UNL     1      37.067   9.309 -29.309  0.00  0.00    +0.113 C 
ATOM      6  C   UNL     1      35.973   9.084 -26.584  0.00  0.00    +0.063 A 
ATOM      7  C   UNL     1      36.008   8.289 -28.987  0.00  0.00    +0.056 C 
ATOM      8  N   UNL     1      35.397   9.035 -25.319  0.00  0.00    -0.245 NA
ATOM      9  C   UNL     1      35.370   8.418 -27.657  0.00  0.00    -0.023 A 
ATOM     10  C   UNL     1      34.216   8.320 -25.185  0.00  0.00    +0.126 A 
ATOM     11  C   UNL     1      34.165   7.727 -27.481  0.00  0.00    +0.008 A 
ATOM     12  C   UNL     1      33.576   7.677 -26.240  0.00  0.00    +0.033 A 
ENDROOT
BRANCH   1  15
ATOM     13 CL   UNL     1      38.589  13.966 -29.490  0.00  0.00    -0.082 Cl
ATOM     14  C   UNL     1      39.693  13.155 -28.425  0.00  0.00    +0.068 A 
ATOM     15  C   UNL     1      39.793  11.768 -28.207  0.00  0.00    +0.093 A 
ATOM     16  C   UNL     1      40.595  13.970 -27.648  0.00  0.00    +0.008 A 
ATOM     17  S   UNL     1      41.068  11.473 -27.114  0.00  0.00    -0.082 S 
ATOM     18  C   UNL     1      41.423  13.163 -26.875  0.00  0.00    +0.021 A 
ATOM     19  C   UNL     1      40.748  15.389 -27.552  0.00  0.00    +0.010 A 
ATOM     20  C   UNL     1      42.403  13.744 -26.030  0.00  0.00    +0.016 A 
ATOM     21  C   UNL     1      41.704  15.962 -26.705  0.00  0.00    +0.001 A 
ATOM     22  C   UNL     1      42.528  15.140 -25.953  0.00  0.00    +0.001 A 
ENDBRANCH   1  15
BRANCH  10  23
ATOM     23  C   UNL     1      33.506   8.128 -23.863  0.00  0.00    +0.263 C 
ATOM     24  O   UNL     1      33.066   9.113 -23.263  0.00  0.00    -0.269 OA
ATOM     25  N   UNL     1      33.366   6.871 -23.332  0.00  0.00    -0.306 N 
ATOM     26  H   UNL     1      33.716   6.093 -23.825  0.00  0.00    +0.149 HD
BRANCH  25  27
ATOM     27  C   UNL     1      32.707   6.672 -22.046  0.00  0.00    +0.140 C 
BRANCH  27  28
ATOM     28  C   UNL     1      31.380   5.979 -22.199  0.00  0.00    -0.030 A 
ATOM     29  C   UNL     1      31.165   4.718 -21.642  0.00  0.00    +0.007 A 
ATOM     30  C   UNL     1      30.332   6.575 -22.899  0.00  0.00    +0.007 A 
ATOM     31  C   UNL     1      29.966   4.031 -21.872  0.00  0.00    +0.023 A 
ATOM     32  C   UNL     1      29.129   5.885 -23.105  0.00  0.00    +0.023 A 
ATOM     33  C   UNL     1      28.924   4.577 -22.639  0.00  0.00    +0.030 A 
BRANCH  33  34
ATOM     34  N   UNL     1      27.803   3.839 -22.974  0.00  0.00    -0.333 N 
ATOM     35  C   UNL     1      27.391   2.635 -22.231  0.00  0.00    +0.086 C 
ATOM     36  C   UNL     1      26.744   4.371 -23.851  0.00  0.00    +0.086 C 
ATOM     37  C   UNL     1      26.860   1.560 -23.211  0.00  0.00    -0.060 C 
ATOM     38  C   UNL     1      26.227   3.258 -24.792  0.00  0.00    -0.060 C 
ATOM     39  N   UNL     1      25.756   2.064 -24.059  0.00  0.00    +0.380 N 
ATOM     40  C   UNL     1      25.302   1.034 -24.990  0.00  0.00    -0.096 C 
ATOM     41  H   UNL     1      24.962   2.313 -23.468  0.00  0.00    -0.082 HD
ENDBRANCH  33  34
ENDBRANCH  27  28
ENDBRANCH  25  27
ENDBRANCH  10  23
TORSDOF 5
ENDMDL
MODEL 4
REMARK VINA RESULT:    -9.999      6.083      8.471
REMARK INTER + INTRA:         -13.679
REMARK INTER:                 -12.966
REMARK INTRA:                  -0.713
REMARK UNBOUND:                -0.758
REMARK  Name = CTX-1020456
REMARK  6 active torsions:
REMARK  status: ('A' for Active; 'I' for Inactive)
REMARK    1  A    between atoms: C_3  and  C_6
REMARK    2  A    between atoms: C_20  and  C_22
REMARK    3  A    between atoms: N_25  and  C_26
REMARK    4  A    between atoms: C_26  and  C_27
REMARK    5  A    between atoms: C_32  and  N_33
REMARK    6  A    between atoms: N_38  and  C_39
REMARK                            x       y       z     vdW  Elec       q    Type
REMARK                         _______ _______ _______ _____ _____    ______ ____
ROOT
ATOM      1  C   UNL     1      21.413   0.141 -18.141  0.00  0.00    +0.255 C 
ATOM      2  O   UNL     1      20.306   0.494 -17.701  0.00  0.00    -0.269 OA
ATOM      3  N   UNL     1      22.506   0.983 -17.710  0.00  0.00    -0.291 N 
ATOM      4  C   UNL     1      23.999   0.857 -17.867  0.00  0.00    +0.163 C 
ATOM      5  C   UNL     1      21.981   2.154 -16.996  0.00  0.00    +0.113 C 
ATOM      6  C   UNL     1      24.888   2.087 -17.461  0.00  0.00    +0.063 A 
ATOM      7  C   UNL     1      22.898   3.099 -16.268  0.00  0.00    +0.056 C 
ATOM      8  N   UNL     1      26.250   2.112 -17.743  0.00  0.00    -0.245 NA
ATOM      9  C   UNL     1      24.299   3.135 -16.745  0.00  0.00    -0.023 A 
ATOM     10  C   UNL     1      26.971   3.210 -17.299  0.00  0.00    +0.126 A 
ATOM     11  C   UNL     1      25.061   4.236 -16.336  0.00  0.00    +0.008 A 
ATOM     12  C   UNL     1      26.407   4.283 -16.615  0.00  0.00    +0.033 A 
ENDROOT
BRANCH   1  15
ATOM     13 CL   UNL     1      22.851   0.243 -21.096  0.00  0.00    -0.082 Cl
ATOM     14  C   UNL     1      22.022  -1.063 -20.309  0.00  0.00    +0.068 A 
ATOM     15  C   UNL     1      21.396  -1.030 -19.049  0.00  0.00    +0.093 A 
ATOM     16  C   UNL     1      21.983  -2.336 -20.986  0.00  0.00    +0.008 A 
ATOM     17  S   UNL     1      20.678  -2.547 -18.751  0.00  0.00    -0.082 S 
ATOM     18  C   UNL     1      21.261  -3.257 -20.233  0.00  0.00    +0.021 A 
ATOM     19  C   UNL     1      22.546  -2.769 -22.228  0.00  0.00    +0.010 A 
ATOM     20  C   UNL     1      21.079  -4.582 -20.704  0.00  0.00    +0.016 A 
ATOM     21  C   UNL     1      22.381  -4.083 -22.683  0.00  0.00    +0.001 A 
ATOM     22  C   UNL     1      21.647  -4.979 -21.924  0.00  0.00    +0.001 A 
ENDBRANCH   1  15
BRANCH  10  23
ATOM     23  C   UNL     1      28.467   3.349 -17.478  0.00  0.00    +0.263 C 
ATOM     24  O   UNL     1      29.221   2.546 -16.923  0.00  0.00    -0.269 OA
ATOM     25  N   UNL     1      28.977   4.369 -18.241  0.00  0.00    -0.306 N 
ATOM     26  H   UNL     1      28.363   4.999 -18.684  0.00  0.00    +0.149 HD
BRANCH  25  27
ATOM     27  C   UNL     1      30.418   4.532 -18.403  0.00  0.00    +0.140 C 
BRANCH  27  28
ATOM     28  C   UNL     1      30.756   5.322 -19.638  0.00  0.00    -0.030 A 
ATOM     29  C   UNL     1      30.510   4.800 -20.908  0.00  0.00    +0.007 A 
ATOM     30  C   UNL     1      31.323   6.592 -19.548  0.00  0.00    +0.007 A 
ATOM     31  C   UNL     1      30.920   5.492 -22.056  0.00  0.00    +0.023 A 
ATOM     32  C   UNL     1      31.709   7.283 -20.705  0.00  0.00    +0.023 A 
ATOM     33  C   UNL     1      31.563   6.738 -21.990  0.00  0.00    +0.030 A 
BRANCH  33  34
ATOM     34  N   UNL     1      32.084   7.349 -23.117  0.00  0.00    -0.333 N 
ATOM     35  C   UNL     1      31.258   7.702 -24.286  0.00  0.00    +0.086 C 
ATOM     36  C   UNL     1      33.400   8.013 -23.115  0.00  0.00    +0.086 C 
ATOM     37  C   UNL     1      32.042   7.430 -25.593  0.00  0.00    -0.060 C 
ATOM     38  C   UNL     1      34.134   7.736 -24.448  0.00  0.00    -0.060 C 
ATOM     39  N   UNL     1      33.342   8.138 -25.630  0.00  0.00    +0.380 N 
ATOM     40  C   UNL     1      34.066   7.835 -26.861  0.00  0.00    -0.096 C 
ATOM     41  H   UNL     1      33.180   9.145 -25.610  0.00  0.00    -0.082 HD
ENDBRANCH  33  34
ENDBRANCH  27  28
ENDBRANCH  25  27
ENDBRANCH  10  23
TORSDOF 5
ENDMDL
MODEL 5
REMARK VINA RESULT:    -9.640      7.790     11.073
REMARK INTER + INTRA:         -13.215
REMARK INTER:                 -12.447
REMARK INTRA:                  -0.768
REMARK UNBOUND:                -0.758
REMARK  Name = CTX-1020456
REMARK  6 active torsions:
REMARK  status: ('A' for Active; 'I' for Inactive)
REMARK    1  A    between atoms: C_3  and  C_6
REMARK    2  A    between atoms: C_20  and  C_22
REMARK    3  A    between atoms: N_25  and  C_26
REMARK    4  A    between atoms: C_26  and  C_27
REMARK    5  A    between atoms: C_32  and  N_33
REMARK    6  A    between atoms: N_38  and  C_39
REMARK                            x       y       z     vdW  Elec       q    Type
REMARK                         _______ _______ _______ _____ _____    ______ ____
ROOT
ATOM      1  C   UNL     1      21.888   1.622 -14.766  0.00  0.00    +0.255 C 
ATOM      2  O   UNL     1      21.607   1.899 -13.588  0.00  0.00    -0.269 OA
ATOM      3  N   UNL     1      23.227   2.010 -15.152  0.00  0.00    -0.291 N 
ATOM      4  C   UNL     1      24.033   1.749 -16.397  0.00  0.00    +0.163 C 
ATOM      5  C   UNL     1      23.846   2.798 -14.079  0.00  0.00    +0.113 C 
ATOM      6  C   UNL     1      25.391   2.518 -16.570  0.00  0.00    +0.063 A 
ATOM      7  C   UNL     1      25.303   3.168 -14.124  0.00  0.00    +0.056 C 
ATOM      8  N   UNL     1      26.099   2.466 -17.766  0.00  0.00    -0.245 NA
ATOM      9  C   UNL     1      25.918   3.207 -15.471  0.00  0.00    -0.023 A 
ATOM     10  C   UNL     1      27.317   3.128 -17.814  0.00  0.00    +0.126 A 
ATOM     11  C   UNL     1      27.141   3.880 -15.571  0.00  0.00    +0.008 A 
ATOM     12  C   UNL     1      27.849   3.849 -16.750  0.00  0.00    +0.033 A 
ENDROOT
BRANCH   1  15
ATOM     13 CL   UNL     1      20.880   2.919 -17.614  0.00  0.00    -0.082 Cl
ATOM     14  C   UNL     1      20.344   1.485 -16.796  0.00  0.00    +0.068 A 
ATOM     15  C   UNL     1      20.798   1.002 -15.554  0.00  0.00    +0.093 A 
ATOM     16  C   UNL     1      19.351   0.671 -17.452  0.00  0.00    +0.008 A 
ATOM     17  S   UNL     1      19.922  -0.407 -15.160  0.00  0.00    -0.082 S 
ATOM     18  C   UNL     1      19.019  -0.417 -16.651  0.00  0.00    +0.021 A 
ATOM     19  C   UNL     1      18.707   0.799 -18.723  0.00  0.00    +0.010 A 
ATOM     20  C   UNL     1      18.050  -1.358 -17.085  0.00  0.00    +0.016 A 
ATOM     21  C   UNL     1      17.764  -0.140 -19.158  0.00  0.00    +0.001 A 
ATOM     22  C   UNL     1      17.438  -1.208 -18.339  0.00  0.00    +0.001 A 
ENDBRANCH   1  15
BRANCH  10  23
ATOM     23  C   UNL     1      28.225   3.110 -19.024  0.00  0.00    +0.263 C 
ATOM     24  O   UNL     1      29.379   3.533 -18.921  0.00  0.00    -0.269 OA
ATOM     25  N   UNL     1      27.761   2.638 -20.226  0.00  0.00    -0.306 N 
ATOM     26  H   UNL     1      26.840   2.297 -20.291  0.00  0.00    +0.149 HD
BRANCH  25  27
ATOM     27  C   UNL     1      28.616   2.638 -21.408  0.00  0.00    +0.140 C 
BRANCH  27  28
ATOM     28  C   UNL     1      27.817   2.761 -22.677  0.00  0.00    -0.030 A 
ATOM     29  C   UNL     1      27.013   1.710 -23.118  0.00  0.00    +0.007 A 
ATOM     30  C   UNL     1      27.858   3.925 -23.443  0.00  0.00    +0.007 A 
ATOM     31  C   UNL     1      26.351   1.788 -24.351  0.00  0.00    +0.023 A 
ATOM     32  C   UNL     1      27.174   3.997 -24.665  0.00  0.00    +0.023 A 
ATOM     33  C   UNL     1      26.438   2.918 -25.179  0.00  0.00    +0.030 A 
BRANCH  33  34
ATOM     34  N   UNL     1      25.895   2.932 -26.451  0.00  0.00    -0.333 N 
ATOM     35  C   UNL     1      26.070   1.821 -27.404  0.00  0.00    +0.086 C 
ATOM     36  C   UNL     1      24.820   3.864 -26.838  0.00  0.00    +0.086 C 
ATOM     37  C   UNL     1      26.277   2.376 -28.836  0.00  0.00    -0.060 C 
ATOM     38  C   UNL     1      25.054   4.371 -28.281  0.00  0.00    -0.060 C 
ATOM     39  N   UNL     1      25.175   3.269 -29.260  0.00  0.00    +0.380 N 
ATOM     40  C   UNL     1      25.418   3.797 -30.600  0.00  0.00    -0.096 C 
ATOM     41  H   UNL     1      24.303   2.740 -29.293  0.00  0.00    -0.082 HD
ENDBRANCH  33  34
ENDBRANCH  27  28
ENDBRANCH  25  27
ENDBRANCH  10  23
TORSDOF 5
ENDMDL
