MODEL 1
REMARK VINA RESULT:   -12.948      0.000      0.000
REMARK INTER + INTRA:         -18.957
REMARK INTER:                 -17.489
REMARK INTRA:                  -1.468
REMARK UNBOUND:                -1.468
REMARK  Name = CTX-1020520
REMARK  8 active torsions:
REMARK  status: ('A' for Active; 'I' for Inactive)
REMARK    1  A    between atoms: C_2  and  C_4
REMARK    2  A    between atoms: N_3  and  C_5
REMARK    3  A    between atoms: C_5  and  C_8
REMARK    4  A    between atoms: C_10  and  N_15
REMARK    5  A    between atoms: C_22  and  N_27
REMARK    6  A    between atoms: C_24  and  C_29
REMARK    7  A    between atoms: C_33  and  C_38
REMARK    8  A    between atoms: N_39  and  C_42
REMARK                            x       y       z     vdW  Elec       q    Type
REMARK                         _______ _______ _______ _____ _____    ______ ____
ROOT
ATOM      1  C   UNL     1      28.714   4.225 -22.744  0.00  0.00    +0.128 A 
ATOM      2  N   UNL     1      28.292   3.361 -21.784  0.00  0.00    -0.245 NA
ATOM      3  C   UNL     1      28.161   4.261 -24.017  0.00  0.00    +0.061 A 
ATOM      4  C   UNL     1      27.281   2.494 -22.079  0.00  0.00    +0.065 A 
ATOM      5  C   UNL     1      27.128   3.371 -24.330  0.00  0.00    +0.072 A 
ATOM      6  C   UNL     1      26.681   2.447 -23.354  0.00  0.00    +0.002 A 
ATOM      7  C   UNL     1      26.855   1.536 -20.957  0.00  0.00    +0.163 C 
ATOM      8  C   UNL     1      25.593   1.432 -23.629  0.00  0.00    +0.058 C 
ATOM      9  N   UNL     1      25.641   0.783 -21.265  0.00  0.00    -0.289 N 
ATOM     10  C   UNL     1      25.545   0.288 -22.623  0.00  0.00    +0.113 C 
ATOM     11  C   UNL     1      24.752   0.389 -20.258  0.00  0.00    +0.283 C 
ATOM     12  O   UNL     1      25.128   0.238 -19.096  0.00  0.00    -0.267 OA
ENDROOT
BRANCH  11  13
ATOM     13  C   UNL     1      23.331   0.431 -20.630  0.00  0.00    +0.194 A 
ATOM     14  O   UNL     1      22.807   1.702 -20.740  0.00  0.00    -0.450 OA
ATOM     15  C   UNL     1      22.258  -0.414 -20.337  0.00  0.00    +0.008 A 
ATOM     16  C   UNL     1      21.746   1.715 -19.904  0.00  0.00    +0.136 A 
ATOM     17  C   UNL     1      21.433   0.417 -19.522  0.00  0.00    +0.024 A 
ATOM     18  C   UNL     1      22.016  -1.839 -20.658  0.00  0.00    +0.048 C 
ATOM     19  C   UNL     1      21.129   2.860 -19.435  0.00  0.00    +0.047 A 
ATOM     20  C   UNL     1      20.459   0.236 -18.527  0.00  0.00    +0.012 A 
ATOM     21  C   UNL     1      20.202   2.665 -18.410  0.00  0.00    +0.004 A 
ATOM     22  C   UNL     1      19.893   1.381 -17.946  0.00  0.00    +0.001 A 
ENDBRANCH  11  13
BRANCH   5  23
ATOM     23  N   UNL     1      26.539   3.473 -25.632  0.00  0.00    -0.239 N 
ATOM     24  N   UNL     1      26.820   2.586 -26.618  0.00  0.00    -0.175 NA
ATOM     25  C   UNL     1      25.612   4.395 -26.059  0.00  0.00    +0.114 A 
ATOM     26  C   UNL     1      26.009   2.921 -27.616  0.00  0.00    +0.135 A 
ATOM     27  C   UNL     1      25.246   4.057 -27.336  0.00  0.00    +0.041 A 
ENDBRANCH   5  23
BRANCH   1  29
ATOM     28  O   UNL     1      30.756   4.874 -21.688  0.00  0.00    -0.269 OA
ATOM     29  C   UNL     1      29.785   5.221 -22.351  0.00  0.00    +0.263 C 
ATOM     30  N   UNL     1      29.599   6.535 -22.765  0.00  0.00    -0.306 N 
ATOM     31  H   UNL     1      28.814   6.751 -23.319  0.00  0.00    +0.149 HD
BRANCH  30  32
ATOM     32  C   UNL     1      30.517   7.601 -22.410  0.00  0.00    +0.140 C 
BRANCH  32  33
ATOM     33  C   UNL     1      31.677   7.669 -23.374  0.00  0.00    -0.030 A 
ATOM     34  C   UNL     1      31.449   7.641 -24.753  0.00  0.00    +0.007 A 
ATOM     35  C   UNL     1      32.996   7.818 -22.928  0.00  0.00    +0.007 A 
ATOM     36  C   UNL     1      32.515   7.744 -25.654  0.00  0.00    +0.023 A 
ATOM     37  C   UNL     1      34.058   7.933 -23.841  0.00  0.00    +0.023 A 
ATOM     38  C   UNL     1      33.843   7.894 -25.223  0.00  0.00    +0.030 A 
BRANCH  38  39
ATOM     39  N   UNL     1      34.846   8.066 -26.163  0.00  0.00    -0.333 N 
ATOM     40  C   UNL     1      34.545   8.296 -27.583  0.00  0.00    +0.086 C 
ATOM     41  C   UNL     1      36.101   8.713 -25.735  0.00  0.00    +0.086 C 
ATOM     42  C   UNL     1      35.733   7.784 -28.439  0.00  0.00    -0.060 C 
ATOM     43  C   UNL     1      37.269   8.211 -26.618  0.00  0.00    -0.060 C 
ATOM     44  N   UNL     1      37.027   8.408 -28.068  0.00  0.00    +0.380 N 
ATOM     45  C   UNL     1      38.115   7.819 -28.847  0.00  0.00    -0.096 C 
ATOM     46  H   UNL     1      36.990   9.405 -28.272  0.00  0.00    -0.082 HD
ENDBRANCH  38  39
ENDBRANCH  32  33
ENDBRANCH  30  32
ENDBRANCH   1  29
TORSDOF 6
ENDMDL
MODEL 2
REMARK VINA RESULT:   -11.271      3.700      6.936
REMARK INTER + INTRA:         -16.692
REMARK INTER:                 -15.933
REMARK INTRA:                  -0.759
REMARK UNBOUND:                -1.468
REMARK  Name = CTX-1020520
REMARK  8 active torsions:
REMARK  status: ('A' for Active; 'I' for Inactive)
REMARK    1  A    between atoms: C_2  and  C_4
REMARK    2  A    between atoms: N_3  and  C_5
REMARK    3  A    between atoms: C_5  and  C_8
REMARK    4  A    between atoms: C_10  and  N_15
REMARK    5  A    between atoms: C_22  and  N_27
REMARK    6  A    between atoms: C_24  and  C_29
REMARK    7  A    between atoms: C_33  and  C_38
REMARK    8  A    between atoms: N_39  and  C_42
REMARK                            x       y       z     vdW  Elec       q    Type
REMARK                         _______ _______ _______ _____ _____    ______ ____
ROOT
ATOM      1  C   UNL     1      23.673   0.379 -22.399  0.00  0.00    +0.128 A 
ATOM      2  N   UNL     1      23.359   1.284 -21.434  0.00  0.00    -0.245 NA
ATOM      3  C   UNL     1      23.201  -0.926 -22.385  0.00  0.00    +0.061 A 
ATOM      4  C   UNL     1      22.545   0.897 -20.411  0.00  0.00    +0.065 A 
ATOM      5  C   UNL     1      22.369  -1.333 -21.335  0.00  0.00    +0.072 A 
ATOM      6  C   UNL     1      22.041  -0.415 -20.307  0.00  0.00    +0.002 A 
ATOM      7  C   UNL     1      22.235   1.961 -19.347  0.00  0.00    +0.163 C 
ATOM      8  C   UNL     1      21.177  -0.792 -19.123  0.00  0.00    +0.058 C 
ATOM      9  N   UNL     1      21.201   1.551 -18.399  0.00  0.00    -0.289 N 
ATOM     10  C   UNL     1      21.279   0.176 -17.950  0.00  0.00    +0.113 C 
ATOM     11  C   UNL     1      20.340   2.485 -17.810  0.00  0.00    +0.283 C 
ATOM     12  O   UNL     1      20.666   3.665 -17.683  0.00  0.00    -0.267 OA
ENDROOT
BRANCH  11  13
ATOM     13  C   UNL     1      18.961   2.021 -17.608  0.00  0.00    +0.194 A 
ATOM     14  O   UNL     1      18.397   2.411 -16.412  0.00  0.00    -0.450 OA
ATOM     15  C   UNL     1      18.294   0.857 -17.997  0.00  0.00    +0.008 A 
ATOM     16  C   UNL     1      18.002   1.261 -15.822  0.00  0.00    +0.136 A 
ATOM     17  C   UNL     1      18.034   0.224 -16.745  0.00  0.00    +0.024 A 
ATOM     18  C   UNL     1      17.993   0.299 -19.336  0.00  0.00    +0.048 C 
ATOM     19  C   UNL     1      17.698   1.130 -14.480  0.00  0.00    +0.047 A 
ATOM     20  C   UNL     1      17.813  -1.082 -16.281  0.00  0.00    +0.012 A 
ATOM     21  C   UNL     1      17.532  -0.179 -14.026  0.00  0.00    +0.004 A 
ATOM     22  C   UNL     1      17.614  -1.267 -14.905  0.00  0.00    +0.001 A 
ENDBRANCH  11  13
BRANCH   5  23
ATOM     23  N   UNL     1      21.852  -2.667 -21.381  0.00  0.00    -0.239 N 
ATOM     24  N   UNL     1      20.521  -2.920 -21.459  0.00  0.00    -0.175 NA
ATOM     25  C   UNL     1      22.570  -3.840 -21.407  0.00  0.00    +0.114 A 
ATOM     26  C   UNL     1      20.434  -4.237 -21.609  0.00  0.00    +0.135 A 
ATOM     27  C   UNL     1      21.679  -4.871 -21.562  0.00  0.00    +0.041 A 
ENDBRANCH   5  23
BRANCH   1  29
ATOM     28  O   UNL     1      24.562   0.251 -24.612  0.00  0.00    -0.269 OA
ATOM     29  C   UNL     1      24.516   0.872 -23.556  0.00  0.00    +0.263 C 
ATOM     30  N   UNL     1      25.237   2.042 -23.349  0.00  0.00    -0.306 N 
ATOM     31  H   UNL     1      25.141   2.513 -22.490  0.00  0.00    +0.149 HD
BRANCH  30  32
ATOM     32  C   UNL     1      26.129   2.595 -24.352  0.00  0.00    +0.140 C 
BRANCH  32  33
ATOM     33  C   UNL     1      27.211   3.437 -23.720  0.00  0.00    -0.030 A 
ATOM     34  C   UNL     1      27.924   2.955 -22.620  0.00  0.00    +0.007 A 
ATOM     35  C   UNL     1      27.570   4.685 -24.243  0.00  0.00    +0.007 A 
ATOM     36  C   UNL     1      28.956   3.711 -22.052  0.00  0.00    +0.023 A 
ATOM     37  C   UNL     1      28.616   5.431 -23.672  0.00  0.00    +0.023 A 
ATOM     38  C   UNL     1      29.329   4.964 -22.563  0.00  0.00    +0.030 A 
BRANCH  38  39
ATOM     39  N   UNL     1      30.407   5.632 -22.005  0.00  0.00    -0.333 N 
ATOM     40  C   UNL     1      31.320   6.445 -22.822  0.00  0.00    +0.086 C 
ATOM     41  C   UNL     1      30.281   6.131 -20.622  0.00  0.00    +0.086 C 
ATOM     42  C   UNL     1      32.710   6.484 -22.135  0.00  0.00    -0.060 C 
ATOM     43  C   UNL     1      31.681   6.190 -19.965  0.00  0.00    -0.060 C 
ATOM     44  N   UNL     1      32.656   6.992 -20.742  0.00  0.00    +0.380 N 
ATOM     45  C   UNL     1      33.979   6.919 -20.124  0.00  0.00    -0.096 C 
ATOM     46  H   UNL     1      32.360   7.967 -20.751  0.00  0.00    -0.082 HD
ENDBRANCH  38  39
ENDBRANCH  32  33
ENDBRANCH  30  32
ENDBRANCH   1  29
TORSDOF 6
ENDMDL
