MODEL 1
REMARK VINA RESULT:   -11.294      0.000      0.000
REMARK INTER + INTRA:         -15.147
REMARK INTER:                 -14.596
REMARK INTRA:                  -0.552
REMARK UNBOUND:                -0.552
REMARK  Name = CTX-1020518
REMARK  8 active torsions:
REMARK  status: ('A' for Active; 'I' for Inactive)
REMARK    1  A    between atoms: C_2  and  C_4
REMARK    2  A    between atoms: N_9  and  C_12
REMARK    3  A    between atoms: C_12  and  C_14
REMARK    4  A    between atoms: C_15  and  C_19
REMARK    5  A    between atoms: C_23  and  C_27
REMARK    6  A    between atoms: C_24  and  N_28
REMARK    7  A    between atoms: N_28  and  C_31
REMARK    8  A    between atoms: N_28  and  C_32
REMARK                            x       y       z     vdW  Elec       q    Type
REMARK                         _______ _______ _______ _____ _____    ______ ____
ROOT
ATOM      1  S   UNL     1      27.961   5.305 -23.985  0.00  0.00    -0.088 S 
ATOM      2  C   UNL     1      29.065   5.204 -22.676  0.00  0.00    +0.074 A 
ATOM      3  C   UNL     1      27.332   3.752 -23.666  0.00  0.00    -0.003 A 
ATOM      4  C   UNL     1      28.948   3.975 -22.038  0.00  0.00    +0.026 A 
ATOM      5  C   UNL     1      27.941   3.124 -22.601  0.00  0.00    -0.019 A 
ATOM      6  C   UNL     1      26.192   3.168 -24.444  0.00  0.00    +0.062 C 
ATOM      7  C   UNL     1      27.555   1.739 -22.126  0.00  0.00    +0.144 C 
ATOM      8  C   UNL     1      26.049   1.670 -24.120  0.00  0.00    +0.113 C 
ATOM      9  N   UNL     1      26.258   1.366 -22.699  0.00  0.00    -0.290 N 
ATOM     10  C   UNL     1      25.402   0.525 -21.969  0.00  0.00    +0.283 C 
ATOM     11  O   UNL     1      25.835  -0.179 -21.055  0.00  0.00    -0.267 OA
ENDROOT
BRANCH  10  12
ATOM     12  C   UNL     1      23.948   0.732 -22.185  0.00  0.00    +0.194 A 
ATOM     13  O   UNL     1      23.260   0.961 -20.998  0.00  0.00    -0.450 OA
ATOM     14  C   UNL     1      23.068  -0.055 -22.945  0.00  0.00    +0.008 A 
ATOM     15  C   UNL     1      22.692  -0.250 -20.755  0.00  0.00    +0.136 A 
ATOM     16  C   UNL     1      22.590  -0.959 -21.941  0.00  0.00    +0.024 A 
ATOM     17  C   UNL     1      22.848  -0.143 -24.401  0.00  0.00    +0.048 C 
ATOM     18  C   UNL     1      22.361  -0.734 -19.499  0.00  0.00    +0.047 A 
ATOM     19  C   UNL     1      22.115  -2.276 -21.898  0.00  0.00    +0.012 A 
ATOM     20  C   UNL     1      22.012  -2.083 -19.458  0.00  0.00    +0.004 A 
ATOM     21  C   UNL     1      21.897  -2.841 -20.632  0.00  0.00    +0.001 A 
ENDBRANCH  10  12
BRANCH   2  22
ATOM     22  C   UNL     1      29.978   6.274 -22.310  0.00  0.00    +0.251 C 
ATOM     23  O   UNL     1      30.193   6.576 -21.128  0.00  0.00    -0.270 OA
ATOM     24  N   UNL     1      30.606   6.961 -23.341  0.00  0.00    -0.307 N 
ATOM     25  H   UNL     1      30.385   6.721 -24.269  0.00  0.00    +0.149 HD
BRANCH  24  26
ATOM     26  C   UNL     1      31.571   8.013 -23.110  0.00  0.00    +0.139 C 
BRANCH  26  27
ATOM     27  C   UNL     1      32.615   8.104 -24.196  0.00  0.00    -0.030 A 
ATOM     28  C   UNL     1      33.929   8.465 -23.901  0.00  0.00    +0.007 A 
ATOM     29  C   UNL     1      32.320   7.759 -25.518  0.00  0.00    +0.007 A 
ATOM     30  C   UNL     1      34.915   8.485 -24.904  0.00  0.00    +0.023 A 
ATOM     31  C   UNL     1      33.317   7.774 -26.511  0.00  0.00    +0.023 A 
ATOM     32  C   UNL     1      34.647   8.133 -26.239  0.00  0.00    +0.029 A 
BRANCH  32  33
ATOM     33  N   UNL     1      35.632   8.203 -27.219  0.00  0.00    -0.336 N 
ATOM     34  C   UNL     1      35.297   8.637 -28.576  0.00  0.00    +0.129 C 
ATOM     35  C   UNL     1      37.047   8.352 -26.883  0.00  0.00    +0.129 C 
ENDBRANCH  32  33
ENDBRANCH  26  27
ENDBRANCH  24  26
ENDBRANCH   2  22
TORSDOF 5
ENDMDL
MODEL 2
REMARK VINA RESULT:   -10.717      5.697      7.831
REMARK INTER + INTRA:         -14.401
REMARK INTER:                 -13.876
REMARK INTRA:                  -0.525
REMARK UNBOUND:                -0.552
REMARK  Name = CTX-1020518
REMARK  8 active torsions:
REMARK  status: ('A' for Active; 'I' for Inactive)
REMARK    1  A    between atoms: C_2  and  C_4
REMARK    2  A    between atoms: N_9  and  C_12
REMARK    3  A    between atoms: C_12  and  C_14
REMARK    4  A    between atoms: C_15  and  C_19
REMARK    5  A    between atoms: C_23  and  C_27
REMARK    6  A    between atoms: C_24  and  N_28
REMARK    7  A    between atoms: N_28  and  C_31
REMARK    8  A    between atoms: N_28  and  C_32
REMARK                            x       y       z     vdW  Elec       q    Type
REMARK                         _______ _______ _______ _____ _____    ______ ____
ROOT
ATOM      1  S   UNL     1      23.839  -0.086 -22.715  0.00  0.00    -0.088 S 
ATOM      2  C   UNL     1      25.064   0.998 -22.198  0.00  0.00    +0.074 A 
ATOM      3  C   UNL     1      23.180  -0.199 -21.146  0.00  0.00    -0.003 A 
ATOM      4  C   UNL     1      24.960   1.231 -20.833  0.00  0.00    +0.026 A 
ATOM      5  C   UNL     1      23.866   0.544 -20.210  0.00  0.00    -0.019 A 
ATOM      6  C   UNL     1      21.944  -0.992 -20.846  0.00  0.00    +0.062 C 
ATOM      7  C   UNL     1      23.470   0.604 -18.750  0.00  0.00    +0.144 C 
ATOM      8  C   UNL     1      21.770  -1.136 -19.324  0.00  0.00    +0.113 C 
ATOM      9  N   UNL     1      22.107   0.088 -18.587  0.00  0.00    -0.290 N 
ATOM     10  C   UNL     1      21.295   0.609 -17.567  0.00  0.00    +0.283 C 
ATOM     11  O   UNL     1      21.787   1.206 -16.608  0.00  0.00    -0.267 OA
ENDROOT
BRANCH  10  12
ATOM     12  C   UNL     1      19.836   0.627 -17.845  0.00  0.00    +0.194 A 
ATOM     13  O   UNL     1      19.249   1.847 -17.528  0.00  0.00    -0.450 OA
ATOM     14  C   UNL     1      18.875  -0.325 -17.468  0.00  0.00    +0.008 A 
ATOM     15  C   UNL     1      18.659   1.582 -16.332  0.00  0.00    +0.136 A 
ATOM     16  C   UNL     1      18.444   0.218 -16.214  0.00  0.00    +0.024 A 
ATOM     17  C   UNL     1      18.541  -1.648 -18.028  0.00  0.00    +0.048 C 
ATOM     18  C   UNL     1      18.408   2.522 -15.344  0.00  0.00    +0.047 A 
ATOM     19  C   UNL     1      17.928  -0.280 -15.011  0.00  0.00    +0.012 A 
ATOM     20  C   UNL     1      18.017   1.998 -14.114  0.00  0.00    +0.004 A 
ATOM     21  C   UNL     1      17.787   0.625 -13.947  0.00  0.00    +0.001 A 
ENDBRANCH  10  12
BRANCH   2  22
ATOM     22  C   UNL     1      26.053   1.578 -23.091  0.00  0.00    +0.251 C 
ATOM     23  O   UNL     1      27.041   0.940 -23.479  0.00  0.00    -0.270 OA
ATOM     24  N   UNL     1      25.856   2.892 -23.499  0.00  0.00    -0.307 N 
ATOM     25  H   UNL     1      25.081   3.383 -23.143  0.00  0.00    +0.149 HD
BRANCH  24  26
ATOM     26  C   UNL     1      26.739   3.568 -24.423  0.00  0.00    +0.139 C 
BRANCH  26  27
ATOM     27  C   UNL     1      26.340   3.378 -25.866  0.00  0.00    -0.030 A 
ATOM     28  C   UNL     1      25.523   4.305 -26.514  0.00  0.00    +0.007 A 
ATOM     29  C   UNL     1      26.834   2.311 -26.621  0.00  0.00    +0.007 A 
ATOM     30  C   UNL     1      25.207   4.159 -27.877  0.00  0.00    +0.023 A 
ATOM     31  C   UNL     1      26.517   2.181 -27.987  0.00  0.00    +0.023 A 
ATOM     32  C   UNL     1      25.698   3.100 -28.662  0.00  0.00    +0.029 A 
BRANCH  32  33
ATOM     33  N   UNL     1      25.334   2.958 -29.997  0.00  0.00    -0.336 N 
ATOM     34  C   UNL     1      24.244   3.761 -30.556  0.00  0.00    +0.129 C 
ATOM     35  C   UNL     1      26.261   2.439 -31.000  0.00  0.00    +0.129 C 
ENDBRANCH  32  33
ENDBRANCH  26  27
ENDBRANCH  24  26
ENDBRANCH   2  22
TORSDOF 5
ENDMDL
MODEL 3
REMARK VINA RESULT:   -10.609      3.621      6.290
REMARK INTER + INTRA:         -14.262
REMARK INTER:                 -13.651
REMARK INTRA:                  -0.610
REMARK UNBOUND:                -0.552
REMARK  Name = CTX-1020518
REMARK  8 active torsions:
REMARK  status: ('A' for Active; 'I' for Inactive)
REMARK    1  A    between atoms: C_2  and  C_4
REMARK    2  A    between atoms: N_9  and  C_12
REMARK    3  A    between atoms: C_12  and  C_14
REMARK    4  A    between atoms: C_15  and  C_19
REMARK    5  A    between atoms: C_23  and  C_27
REMARK    6  A    between atoms: C_24  and  N_28
REMARK    7  A    between atoms: N_28  and  C_31
REMARK    8  A    between atoms: N_28  and  C_32
REMARK                            x       y       z     vdW  Elec       q    Type
REMARK                         _______ _______ _______ _____ _____    ______ ____
ROOT
ATOM      1  S   UNL     1      24.098   0.249 -22.909  0.00  0.00    -0.088 S 
ATOM      2  C   UNL     1      25.038   1.637 -22.542  0.00  0.00    +0.074 A 
ATOM      3  C   UNL     1      23.580   0.087 -21.292  0.00  0.00    -0.003 A 
ATOM      4  C   UNL     1      24.956   1.933 -21.188  0.00  0.00    +0.026 A 
ATOM      5  C   UNL     1      24.108   1.042 -20.450  0.00  0.00    -0.019 A 
ATOM      6  C   UNL     1      22.603  -0.965 -20.859  0.00  0.00    +0.062 C 
ATOM      7  C   UNL     1      23.795   1.105 -18.970  0.00  0.00    +0.144 C 
ATOM      8  C   UNL     1      22.559  -1.039 -19.323  0.00  0.00    +0.113 C 
ATOM      9  N   UNL     1      22.618   0.280 -18.680  0.00  0.00    -0.290 N 
ATOM     10  C   UNL     1      21.760   0.653 -17.633  0.00  0.00    +0.283 C 
ATOM     11  O   UNL     1      22.140   1.420 -16.747  0.00  0.00    -0.267 OA
ENDROOT
BRANCH  10  12
ATOM     12  C   UNL     1      20.331   0.289 -17.804  0.00  0.00    +0.194 A 
ATOM     13  O   UNL     1      19.488   1.393 -17.731  0.00  0.00    -0.450 OA
ATOM     14  C   UNL     1      19.618  -0.731 -17.154  0.00  0.00    +0.008 A 
ATOM     15  C   UNL     1      18.996   1.298 -16.467  0.00  0.00    +0.136 A 
ATOM     16  C   UNL     1      19.097  -0.013 -16.029  0.00  0.00    +0.024 A 
ATOM     17  C   UNL     1      19.583  -2.189 -17.375  0.00  0.00    +0.048 C 
ATOM     18  C   UNL     1      18.556   2.368 -15.703  0.00  0.00    +0.047 A 
ATOM     19  C   UNL     1      18.729  -0.311 -14.710  0.00  0.00    +0.012 A 
ATOM     20  C   UNL     1      18.316   2.078 -14.361  0.00  0.00    +0.004 A 
ATOM     21  C   UNL     1      18.406   0.768 -13.872  0.00  0.00    +0.001 A 
ENDBRANCH  10  12
BRANCH   2  22
ATOM     22  C   UNL     1      25.796   2.379 -23.536  0.00  0.00    +0.251 C 
ATOM     23  O   UNL     1      25.764   2.085 -24.738  0.00  0.00    -0.270 OA
ATOM     24  N   UNL     1      26.571   3.441 -23.087  0.00  0.00    -0.307 N 
ATOM     25  H   UNL     1      26.603   3.625 -22.121  0.00  0.00    +0.149 HD
BRANCH  24  26
ATOM     26  C   UNL     1      27.333   4.288 -23.978  0.00  0.00    +0.139 C 
BRANCH  26  27
ATOM     27  C   UNL     1      28.638   4.751 -23.378  0.00  0.00    -0.030 A 
ATOM     28  C   UNL     1      29.244   5.935 -23.801  0.00  0.00    +0.007 A 
ATOM     29  C   UNL     1      29.244   4.053 -22.330  0.00  0.00    +0.007 A 
ATOM     30  C   UNL     1      30.425   6.397 -23.194  0.00  0.00    +0.023 A 
ATOM     31  C   UNL     1      30.422   4.532 -21.724  0.00  0.00    +0.023 A 
ATOM     32  C   UNL     1      31.050   5.719 -22.132  0.00  0.00    +0.029 A 
BRANCH  32  33
ATOM     33  N   UNL     1      32.241   6.179 -21.580  0.00  0.00    -0.336 N 
ATOM     34  C   UNL     1      33.212   6.898 -22.407  0.00  0.00    +0.129 C 
ATOM     35  C   UNL     1      32.382   6.433 -20.147  0.00  0.00    +0.129 C 
ENDBRANCH  32  33
ENDBRANCH  26  27
ENDBRANCH  24  26
ENDBRANCH   2  22
TORSDOF 5
ENDMDL
MODEL 4
REMARK VINA RESULT:    -9.990      4.635      6.789
REMARK INTER + INTRA:         -13.462
REMARK INTER:                 -13.930
REMARK INTRA:                   0.468
REMARK UNBOUND:                -0.552
REMARK  Name = CTX-1020518
REMARK  8 active torsions:
REMARK  status: ('A' for Active; 'I' for Inactive)
REMARK    1  A    between atoms: C_2  and  C_4
REMARK    2  A    between atoms: N_9  and  C_12
REMARK    3  A    between atoms: C_12  and  C_14
REMARK    4  A    between atoms: C_15  and  C_19
REMARK    5  A    between atoms: C_23  and  C_27
REMARK    6  A    between atoms: C_24  and  N_28
REMARK    7  A    between atoms: N_28  and  C_31
REMARK    8  A    between atoms: N_28  and  C_32
REMARK                            x       y       z     vdW  Elec       q    Type
REMARK                         _______ _______ _______ _____ _____    ______ ____
ROOT
ATOM      1  S   UNL     1      25.618   2.319 -18.156  0.00  0.00    -0.088 S 
ATOM      2  C   UNL     1      26.122   3.405 -16.927  0.00  0.00    +0.074 A 
ATOM      3  C   UNL     1      24.088   2.102 -17.433  0.00  0.00    -0.003 A 
ATOM      4  C   UNL     1      25.121   3.560 -15.977  0.00  0.00    +0.026 A 
ATOM      5  C   UNL     1      23.931   2.812 -16.262  0.00  0.00    -0.019 A 
ATOM      6  C   UNL     1      23.014   1.262 -18.055  0.00  0.00    +0.062 C 
ATOM      7  C   UNL     1      22.660   2.781 -15.440  0.00  0.00    +0.144 C 
ATOM      8  C   UNL     1      21.878   1.030 -17.043  0.00  0.00    +0.113 C 
ATOM      9  N   UNL     1      21.568   2.221 -16.242  0.00  0.00    -0.290 N 
ATOM     10  C   UNL     1      20.255   2.663 -16.016  0.00  0.00    +0.283 C 
ATOM     11  O   UNL     1      19.948   3.219 -14.960  0.00  0.00    -0.267 OA
ENDROOT
BRANCH  10  12
ATOM     12  C   UNL     1      19.355   2.658 -17.197  0.00  0.00    +0.194 A 
ATOM     13  O   UNL     1      18.094   2.151 -16.904  0.00  0.00    -0.450 OA
ATOM     14  C   UNL     1      19.629   2.173 -18.486  0.00  0.00    +0.008 A 
ATOM     15  C   UNL     1      18.168   0.886 -17.397  0.00  0.00    +0.136 A 
ATOM     16  C   UNL     1      19.157   0.826 -18.367  0.00  0.00    +0.024 A 
ATOM     17  C   UNL     1      20.403   2.751 -19.601  0.00  0.00    +0.048 C 
ATOM     18  C   UNL     1      17.438  -0.194 -16.928  0.00  0.00    +0.047 A 
ATOM     19  C   UNL     1      19.461  -0.416 -18.939  0.00  0.00    +0.012 A 
ATOM     20  C   UNL     1      17.840  -1.437 -17.414  0.00  0.00    +0.004 A 
ATOM     21  C   UNL     1      18.835  -1.547 -18.395  0.00  0.00    +0.001 A 
ENDBRANCH  10  12
BRANCH   2  22
ATOM     22  C   UNL     1      27.420   4.059 -16.915  0.00  0.00    +0.251 C 
ATOM     23  O   UNL     1      27.588   5.173 -16.402  0.00  0.00    -0.270 OA
ATOM     24  N   UNL     1      28.480   3.388 -17.511  0.00  0.00    -0.307 N 
ATOM     25  H   UNL     1      28.306   2.521 -17.943  0.00  0.00    +0.149 HD
BRANCH  24  26
ATOM     26  C   UNL     1      29.830   3.906 -17.525  0.00  0.00    +0.139 C 
BRANCH  26  27
ATOM     27  C   UNL     1      30.187   4.588 -18.823  0.00  0.00    -0.030 A 
ATOM     28  C   UNL     1      30.618   5.915 -18.844  0.00  0.00    +0.007 A 
ATOM     29  C   UNL     1      30.169   3.895 -20.037  0.00  0.00    +0.007 A 
ATOM     30  C   UNL     1      31.012   6.527 -20.047  0.00  0.00    +0.023 A 
ATOM     31  C   UNL     1      30.575   4.516 -21.233  0.00  0.00    +0.023 A 
ATOM     32  C   UNL     1      31.012   5.850 -21.280  0.00  0.00    +0.029 A 
BRANCH  32  33
ATOM     33  N   UNL     1      31.367   6.494 -22.461  0.00  0.00    -0.336 N 
ATOM     34  C   UNL     1      32.761   6.867 -22.710  0.00  0.00    +0.129 C 
ATOM     35  C   UNL     1      30.557   6.388 -23.672  0.00  0.00    +0.129 C 
ENDBRANCH  32  33
ENDBRANCH  26  27
ENDBRANCH  24  26
ENDBRANCH   2  22
TORSDOF 5
ENDMDL
MODEL 5
REMARK VINA RESULT:    -9.606      4.859      6.208
REMARK INTER + INTRA:         -12.965
REMARK INTER:                 -12.838
REMARK INTRA:                  -0.127
REMARK UNBOUND:                -0.552
REMARK  Name = CTX-1020518
REMARK  8 active torsions:
REMARK  status: ('A' for Active; 'I' for Inactive)
REMARK    1  A    between atoms: C_2  and  C_4
REMARK    2  A    between atoms: N_9  and  C_12
REMARK    3  A    between atoms: C_12  and  C_14
REMARK    4  A    between atoms: C_15  and  C_19
REMARK    5  A    between atoms: C_23  and  C_27
REMARK    6  A    between atoms: C_24  and  N_28
REMARK    7  A    between atoms: N_28  and  C_31
REMARK    8  A    between atoms: N_28  and  C_32
REMARK                            x       y       z     vdW  Elec       q    Type
REMARK                         _______ _______ _______ _____ _____    ______ ____
ROOT
ATOM      1  S   UNL     1      27.669   3.151 -18.710  0.00  0.00    -0.088 S 
ATOM      2  C   UNL     1      28.486   3.738 -17.320  0.00  0.00    +0.074 A 
ATOM      3  C   UNL     1      26.307   2.682 -17.796  0.00  0.00    -0.003 A 
ATOM      4  C   UNL     1      27.713   3.541 -16.184  0.00  0.00    +0.026 A 
ATOM      5  C   UNL     1      26.441   2.932 -16.447  0.00  0.00    -0.019 A 
ATOM      6  C   UNL     1      25.074   2.106 -18.423  0.00  0.00    +0.062 C 
ATOM      7  C   UNL     1      25.365   2.604 -15.434  0.00  0.00    +0.144 C 
ATOM      8  C   UNL     1      24.154   1.525 -17.335  0.00  0.00    +0.113 C 
ATOM      9  N   UNL     1      24.097   2.355 -16.125  0.00  0.00    -0.290 N 
ATOM     10  C   UNL     1      22.891   2.679 -15.483  0.00  0.00    +0.283 C 
ATOM     11  O   UNL     1      22.844   2.826 -14.261  0.00  0.00    -0.267 OA
ENDROOT
BRANCH  10  12
ATOM     12  C   UNL     1      21.771   3.083 -16.371  0.00  0.00    +0.194 A 
ATOM     13  O   UNL     1      20.862   3.922 -15.734  0.00  0.00    -0.450 OA
ATOM     14  C   UNL     1      20.971   2.260 -17.179  0.00  0.00    +0.008 A 
ATOM     15  C   UNL     1      19.847   3.070 -15.431  0.00  0.00    +0.136 A 
ATOM     16  C   UNL     1      19.894   1.974 -16.278  0.00  0.00    +0.024 A 
ATOM     17  C   UNL     1      21.229   1.630 -18.488  0.00  0.00    +0.048 C 
ATOM     18  C   UNL     1      18.967   3.228 -14.371  0.00  0.00    +0.047 A 
ATOM     19  C   UNL     1      18.987   0.926 -16.073  0.00  0.00    +0.012 A 
ATOM     20  C   UNL     1      18.160   2.125 -14.103  0.00  0.00    +0.004 A 
ATOM     21  C   UNL     1      18.172   0.994 -14.932  0.00  0.00    +0.001 A 
ENDBRANCH  10  12
BRANCH   2  22
ATOM     22  C   UNL     1      29.801   4.356 -17.363  0.00  0.00    +0.251 C 
ATOM     23  O   UNL     1      30.763   3.896 -16.733  0.00  0.00    -0.270 OA
ATOM     24  N   UNL     1      29.947   5.498 -18.141  0.00  0.00    -0.307 N 
ATOM     25  H   UNL     1      29.155   5.859 -18.599  0.00  0.00    +0.149 HD
BRANCH  24  26
ATOM     26  C   UNL     1      31.212   6.180 -18.306  0.00  0.00    +0.139 C 
BRANCH  26  27
ATOM     27  C   UNL     1      31.560   6.432 -19.752  0.00  0.00    -0.030 A 
ATOM     28  C   UNL     1      30.564   6.616 -20.711  0.00  0.00    +0.007 A 
ATOM     29  C   UNL     1      32.889   6.564 -20.167  0.00  0.00    +0.007 A 
ATOM     30  C   UNL     1      30.892   6.916 -22.045  0.00  0.00    +0.023 A 
ATOM     31  C   UNL     1      33.204   6.874 -21.504  0.00  0.00    +0.023 A 
ATOM     32  C   UNL     1      32.219   7.063 -22.486  0.00  0.00    +0.029 A 
BRANCH  32  33
ATOM     33  N   UNL     1      32.515   7.318 -23.822  0.00  0.00    -0.336 N 
ATOM     34  C   UNL     1      31.448   7.665 -24.763  0.00  0.00    +0.129 C 
ATOM     35  C   UNL     1      33.844   7.748 -24.250  0.00  0.00    +0.129 C 
ENDBRANCH  32  33
ENDBRANCH  26  27
ENDBRANCH  24  26
ENDBRANCH   2  22
TORSDOF 5
ENDMDL
