MODEL 1
REMARK VINA RESULT:   -12.797      0.000      0.000
REMARK INTER + INTRA:         -17.481
REMARK INTER:                 -16.537
REMARK INTRA:                  -0.944
REMARK UNBOUND:                -0.944
REMARK  Name = CTX-1020458
REMARK  8 active torsions:
REMARK  status: ('A' for Active; 'I' for Inactive)
REMARK    1  A    between atoms: C_2  and  C_4
REMARK    2  A    between atoms: N_3  and  C_5
REMARK    3  A    between atoms: C_5  and  C_8
REMARK    4  A    between atoms: C_19  and  N_22
REMARK    5  A    between atoms: C_21  and  C_24
REMARK    6  A    between atoms: C_28  and  C_33
REMARK    7  A    between atoms: N_34  and  C_37
REMARK    8  A    between atoms: C_38  and  C_40
REMARK                            x       y       z     vdW  Elec       q    Type
REMARK                         _______ _______ _______ _____ _____    ______ ____
ROOT
ATOM      1  C   UNL     1      28.575   4.765 -22.941  0.00  0.00    +0.126 A 
ATOM      2  N   UNL     1      28.313   3.601 -22.275  0.00  0.00    -0.245 NA
ATOM      3  C   UNL     1      27.909   5.168 -24.089  0.00  0.00    +0.033 A 
ATOM      4  C   UNL     1      27.318   2.807 -22.783  0.00  0.00    +0.063 A 
ATOM      5  C   UNL     1      26.934   4.334 -24.618  0.00  0.00    +0.008 A 
ATOM      6  C   UNL     1      26.635   3.124 -23.971  0.00  0.00    -0.023 A 
ATOM      7  C   UNL     1      26.957   1.538 -22.011  0.00  0.00    +0.163 C 
ATOM      8  C   UNL     1      25.543   2.248 -24.519  0.00  0.00    +0.056 C 
ATOM      9  N   UNL     1      25.679   0.949 -22.428  0.00  0.00    -0.289 N 
ATOM     10  C   UNL     1      25.480   0.870 -23.864  0.00  0.00    +0.113 C 
ATOM     11  C   UNL     1      24.898   0.232 -21.509  0.00  0.00    +0.283 C 
ATOM     12  O   UNL     1      25.372  -0.150 -20.439  0.00  0.00    -0.267 OA
ENDROOT
BRANCH  11  13
ATOM     13  C   UNL     1      23.433   0.164 -21.788  0.00  0.00    +0.194 A 
ATOM     14  O   UNL     1      22.811   1.405 -21.627  0.00  0.00    -0.450 OA
ATOM     15  C   UNL     1      22.488  -0.731 -21.251  0.00  0.00    +0.008 A 
ATOM     16  C   UNL     1      22.250   1.289 -20.388  0.00  0.00    +0.136 A 
ATOM     17  C   UNL     1      22.095  -0.051 -20.072  0.00  0.00    +0.024 A 
ATOM     18  C   UNL     1      22.003  -2.049 -21.710  0.00  0.00    +0.048 C 
ATOM     19  C   UNL     1      21.954   2.354 -19.553  0.00  0.00    +0.050 A 
ATOM     20  C   UNL     1      21.598  -0.391 -18.808  0.00  0.00    +0.012 A 
ATOM     21  C   UNL     1      21.582   1.998 -18.254  0.00  0.00    -0.047 A 
ATOM     22  C   UNL     1      21.411   0.656 -17.887  0.00  0.00    +0.004 A 
ATOM     23  C   UNL     1      21.436   3.069 -17.211  0.00  0.00    +0.044 C 
ENDBRANCH  11  13
BRANCH   1  25
ATOM     24  O   UNL     1      30.278   5.355 -21.392  0.00  0.00    -0.269 OA
ATOM     25  C   UNL     1      29.652   5.666 -22.404  0.00  0.00    +0.263 C 
ATOM     26  N   UNL     1      29.883   6.834 -23.102  0.00  0.00    -0.306 N 
ATOM     27  H   UNL     1      29.357   7.019 -23.913  0.00  0.00    +0.149 HD
BRANCH  26  28
ATOM     28  C   UNL     1      30.876   7.793 -22.674  0.00  0.00    +0.140 C 
BRANCH  28  29
ATOM     29  C   UNL     1      32.013   7.914 -23.652  0.00  0.00    -0.030 A 
ATOM     30  C   UNL     1      31.801   7.686 -25.013  0.00  0.00    +0.007 A 
ATOM     31  C   UNL     1      33.292   8.302 -23.234  0.00  0.00    +0.007 A 
ATOM     32  C   UNL     1      32.856   7.790 -25.923  0.00  0.00    +0.023 A 
ATOM     33  C   UNL     1      34.342   8.415 -24.158  0.00  0.00    +0.023 A 
ATOM     34  C   UNL     1      34.153   8.140 -25.515  0.00  0.00    +0.030 A 
BRANCH  34  35
ATOM     35  N   UNL     1      35.149   8.268 -26.466  0.00  0.00    -0.333 N 
ATOM     36  C   UNL     1      34.842   8.702 -27.834  0.00  0.00    +0.086 C 
ATOM     37  C   UNL     1      36.498   8.662 -26.023  0.00  0.00    +0.086 C 
ATOM     38  C   UNL     1      35.899   8.096 -28.786  0.00  0.00    -0.060 C 
ATOM     39  C   UNL     1      37.542   8.079 -27.006  0.00  0.00    -0.060 C 
ATOM     40  N   UNL     1      37.287   8.464 -28.417  0.00  0.00    +0.380 N 
ATOM     41  C   UNL     1      38.238   7.801 -29.307  0.00  0.00    -0.096 C 
ATOM     42  H   UNL     1      37.407   9.472 -28.513  0.00  0.00    -0.082 HD
ENDBRANCH  34  35
ENDBRANCH  28  29
ENDBRANCH  26  28
ENDBRANCH   1  25
TORSDOF 5
ENDMDL
MODEL 2
REMARK VINA RESULT:   -11.568      3.817      6.868
REMARK INTER + INTRA:         -15.893
REMARK INTER:                 -15.198
REMARK INTRA:                  -0.695
REMARK UNBOUND:                -0.944
REMARK  Name = CTX-1020458
REMARK  8 active torsions:
REMARK  status: ('A' for Active; 'I' for Inactive)
REMARK    1  A    between atoms: C_2  and  C_4
REMARK    2  A    between atoms: N_3  and  C_5
REMARK    3  A    between atoms: C_5  and  C_8
REMARK    4  A    between atoms: C_19  and  N_22
REMARK    5  A    between atoms: C_21  and  C_24
REMARK    6  A    between atoms: C_28  and  C_33
REMARK    7  A    between atoms: N_34  and  C_37
REMARK    8  A    between atoms: C_38  and  C_40
REMARK                            x       y       z     vdW  Elec       q    Type
REMARK                         _______ _______ _______ _____ _____    ______ ____
ROOT
ATOM      1  C   UNL     1      26.011   2.777 -15.532  0.00  0.00    +0.126 A 
ATOM      2  N   UNL     1      25.401   2.576 -16.739  0.00  0.00    -0.245 NA
ATOM      3  C   UNL     1      25.339   2.796 -14.319  0.00  0.00    +0.033 A 
ATOM      4  C   UNL     1      24.046   2.371 -16.723  0.00  0.00    +0.063 A 
ATOM      5  C   UNL     1      23.961   2.631 -14.320  0.00  0.00    +0.008 A 
ATOM      6  C   UNL     1      23.291   2.429 -15.537  0.00  0.00    -0.023 A 
ATOM      7  C   UNL     1      23.355   2.071 -18.053  0.00  0.00    +0.163 C 
ATOM      8  C   UNL     1      21.805   2.200 -15.529  0.00  0.00    +0.056 C 
ATOM      9  N   UNL     1      21.999   1.533 -17.894  0.00  0.00    -0.289 N 
ATOM     10  C   UNL     1      21.175   2.226 -16.919  0.00  0.00    +0.113 C 
ATOM     11  C   UNL     1      21.471   0.653 -18.850  0.00  0.00    +0.283 C 
ATOM     12  O   UNL     1      22.003   0.525 -19.953  0.00  0.00    -0.267 OA
ENDROOT
BRANCH  11  13
ATOM     13  C   UNL     1      20.398  -0.274 -18.384  0.00  0.00    +0.194 A 
ATOM     14  O   UNL     1      20.916  -1.486 -17.922  0.00  0.00    -0.450 OA
ATOM     15  C   UNL     1      19.236  -0.673 -19.072  0.00  0.00    +0.008 A 
ATOM     16  C   UNL     1      20.714  -2.313 -18.989  0.00  0.00    +0.136 A 
ATOM     17  C   UNL     1      19.708  -1.799 -19.791  0.00  0.00    +0.024 A 
ATOM     18  C   UNL     1      17.870  -0.111 -19.114  0.00  0.00    +0.048 C 
ATOM     19  C   UNL     1      21.458  -3.450 -19.259  0.00  0.00    +0.050 A 
ATOM     20  C   UNL     1      19.391  -2.462 -20.983  0.00  0.00    +0.012 A 
ATOM     21  C   UNL     1      21.220  -4.027 -20.509  0.00  0.00    -0.047 A 
ATOM     22  C   UNL     1      20.212  -3.543 -21.355  0.00  0.00    +0.004 A 
ATOM     23  C   UNL     1      22.110  -5.138 -20.988  0.00  0.00    +0.044 C 
ENDBRANCH  11  13
BRANCH   1  25
ATOM     24  O   UNL     1      28.180   2.550 -14.590  0.00  0.00    -0.269 OA
ATOM     25  C   UNL     1      27.498   2.992 -15.513  0.00  0.00    +0.263 C 
ATOM     26  N   UNL     1      28.032   3.702 -16.569  0.00  0.00    -0.306 N 
ATOM     27  H   UNL     1      27.434   4.019 -17.284  0.00  0.00    +0.149 HD
BRANCH  26  28
ATOM     28  C   UNL     1      29.445   3.994 -16.653  0.00  0.00    +0.140 C 
BRANCH  28  29
ATOM     29  C   UNL     1      29.811   4.683 -17.939  0.00  0.00    -0.030 A 
ATOM     30  C   UNL     1      29.837   3.970 -19.139  0.00  0.00    +0.007 A 
ATOM     31  C   UNL     1      30.084   6.056 -17.975  0.00  0.00    +0.007 A 
ATOM     32  C   UNL     1      30.184   4.606 -20.335  0.00  0.00    +0.023 A 
ATOM     33  C   UNL     1      30.418   6.687 -19.182  0.00  0.00    +0.023 A 
ATOM     34  C   UNL     1      30.498   5.973 -20.381  0.00  0.00    +0.030 A 
BRANCH  34  35
ATOM     35  N   UNL     1      30.793   6.557 -21.600  0.00  0.00    -0.333 N 
ATOM     36  C   UNL     1      29.842   6.510 -22.716  0.00  0.00    +0.086 C 
ATOM     37  C   UNL     1      31.644   7.760 -21.615  0.00  0.00    +0.086 C 
ATOM     38  C   UNL     1      30.640   6.565 -24.039  0.00  0.00    -0.060 C 
ATOM     39  C   UNL     1      32.407   7.822 -22.960  0.00  0.00    -0.060 C 
ATOM     40  N   UNL     1      31.508   7.763 -24.140  0.00  0.00    +0.380 N 
ATOM     41  C   UNL     1      32.288   7.718 -25.375  0.00  0.00    -0.096 C 
ATOM     42  H   UNL     1      30.928   8.601 -24.157  0.00  0.00    -0.082 HD
ENDBRANCH  34  35
ENDBRANCH  28  29
ENDBRANCH  26  28
ENDBRANCH   1  25
TORSDOF 5
ENDMDL
MODEL 3
REMARK VINA RESULT:   -11.066      3.885     13.451
REMARK INTER + INTRA:         -15.245
REMARK INTER:                 -15.231
REMARK INTRA:                  -0.014
REMARK UNBOUND:                -0.944
REMARK  Name = CTX-1020458
REMARK  8 active torsions:
REMARK  status: ('A' for Active; 'I' for Inactive)
REMARK    1  A    between atoms: C_2  and  C_4
REMARK    2  A    between atoms: N_3  and  C_5
REMARK    3  A    between atoms: C_5  and  C_8
REMARK    4  A    between atoms: C_19  and  N_22
REMARK    5  A    between atoms: C_21  and  C_24
REMARK    6  A    between atoms: C_28  and  C_33
REMARK    7  A    between atoms: N_34  and  C_37
REMARK    8  A    between atoms: C_38  and  C_40
REMARK                            x       y       z     vdW  Elec       q    Type
REMARK                         _______ _______ _______ _____ _____    ______ ____
ROOT
ATOM      1  C   UNL     1      29.481   3.954 -17.638  0.00  0.00    +0.126 A 
ATOM      2  N   UNL     1      29.681   3.744 -18.974  0.00  0.00    -0.245 NA
ATOM      3  C   UNL     1      29.949   5.064 -16.950  0.00  0.00    +0.033 A 
ATOM      4  C   UNL     1      30.378   4.708 -19.656  0.00  0.00    +0.063 A 
ATOM      5  C   UNL     1      30.689   6.011 -17.643  0.00  0.00    +0.008 A 
ATOM      6  C   UNL     1      30.926   5.834 -19.015  0.00  0.00    -0.023 A 
ATOM      7  C   UNL     1      30.548   4.530 -21.164  0.00  0.00    +0.163 C 
ATOM      8  C   UNL     1      31.687   6.887 -19.772  0.00  0.00    +0.056 C 
ATOM      9  N   UNL     1      30.991   5.752 -21.846  0.00  0.00    -0.289 N 
ATOM     10  C   UNL     1      32.071   6.465 -21.188  0.00  0.00    +0.113 C 
ATOM     11  C   UNL     1      30.618   5.993 -23.177  0.00  0.00    +0.283 C 
ATOM     12  O   UNL     1      30.158   5.091 -23.877  0.00  0.00    -0.267 OA
ENDROOT
BRANCH  11  13
ATOM     13  C   UNL     1      30.588   7.419 -23.614  0.00  0.00    +0.194 A 
ATOM     14  O   UNL     1      30.819   7.553 -24.985  0.00  0.00    -0.450 OA
ATOM     15  C   UNL     1      31.294   8.510 -23.071  0.00  0.00    +0.008 A 
ATOM     16  C   UNL     1      32.136   7.910 -25.024  0.00  0.00    +0.136 A 
ATOM     17  C   UNL     1      32.505   8.452 -23.804  0.00  0.00    +0.024 A 
ATOM     18  C   UNL     1      30.954   9.477 -22.007  0.00  0.00    +0.048 C 
ATOM     19  C   UNL     1      32.983   7.690 -26.098  0.00  0.00    +0.050 A 
ATOM     20  C   UNL     1      33.842   8.821 -23.608  0.00  0.00    +0.012 A 
ATOM     21  C   UNL     1      34.333   7.942 -25.844  0.00  0.00    -0.047 A 
ATOM     22  C   UNL     1      34.755   8.492 -24.626  0.00  0.00    +0.004 A 
ATOM     23  C   UNL     1      35.360   7.547 -26.867  0.00  0.00    +0.044 C 
ENDBRANCH  11  13
BRANCH   1  25
ATOM     24  O   UNL     1      28.869   1.724 -17.090  0.00  0.00    -0.269 OA
ATOM     25  C   UNL     1      28.711   2.923 -16.863  0.00  0.00    +0.263 C 
ATOM     26  N   UNL     1      27.837   3.396 -15.906  0.00  0.00    -0.306 N 
ATOM     27  H   UNL     1      27.765   4.367 -15.762  0.00  0.00    +0.149 HD
BRANCH  26  28
ATOM     28  C   UNL     1      27.023   2.505 -15.110  0.00  0.00    +0.140 C 
BRANCH  28  29
ATOM     29  C   UNL     1      25.605   2.428 -15.608  0.00  0.00    -0.030 A 
ATOM     30  C   UNL     1      24.541   2.379 -14.706  0.00  0.00    +0.007 A 
ATOM     31  C   UNL     1      25.315   2.453 -16.978  0.00  0.00    +0.007 A 
ATOM     32  C   UNL     1      23.224   2.300 -15.166  0.00  0.00    +0.023 A 
ATOM     33  C   UNL     1      23.989   2.386 -17.429  0.00  0.00    +0.023 A 
ATOM     34  C   UNL     1      22.919   2.284 -16.536  0.00  0.00    +0.030 A 
BRANCH  34  35
ATOM     35  N   UNL     1      21.594   2.246 -16.932  0.00  0.00    -0.333 N 
ATOM     36  C   UNL     1      20.598   3.146 -16.341  0.00  0.00    +0.086 C 
ATOM     37  C   UNL     1      21.287   1.880 -18.326  0.00  0.00    +0.086 C 
ATOM     38  C   UNL     1      19.217   2.454 -16.404  0.00  0.00    -0.060 C 
ATOM     39  C   UNL     1      19.887   1.222 -18.379  0.00  0.00    -0.060 C 
ATOM     40  N   UNL     1      18.826   2.071 -17.782  0.00  0.00    +0.380 N 
ATOM     41  C   UNL     1      17.551   1.357 -17.764  0.00  0.00    -0.096 C 
ATOM     42  H   UNL     1      18.715   2.911 -18.349  0.00  0.00    -0.082 HD
ENDBRANCH  34  35
ENDBRANCH  28  29
ENDBRANCH  26  28
ENDBRANCH   1  25
TORSDOF 5
ENDMDL
MODEL 4
REMARK VINA RESULT:   -11.041      1.642      2.697
REMARK INTER + INTRA:         -15.212
REMARK INTER:                 -14.863
REMARK INTRA:                  -0.349
REMARK UNBOUND:                -0.944
REMARK  Name = CTX-1020458
REMARK  8 active torsions:
REMARK  status: ('A' for Active; 'I' for Inactive)
REMARK    1  A    between atoms: C_2  and  C_4
REMARK    2  A    between atoms: N_3  and  C_5
REMARK    3  A    between atoms: C_5  and  C_8
REMARK    4  A    between atoms: C_19  and  N_22
REMARK    5  A    between atoms: C_21  and  C_24
REMARK    6  A    between atoms: C_28  and  C_33
REMARK    7  A    between atoms: N_34  and  C_37
REMARK    8  A    between atoms: C_38  and  C_40
REMARK                            x       y       z     vdW  Elec       q    Type
REMARK                         _______ _______ _______ _____ _____    ______ ____
ROOT
ATOM      1  C   UNL     1      28.670   3.936 -22.288  0.00  0.00    +0.126 A 
ATOM      2  N   UNL     1      28.199   2.952 -21.465  0.00  0.00    -0.245 NA
ATOM      3  C   UNL     1      28.221   4.141 -23.585  0.00  0.00    +0.033 A 
ATOM      4  C   UNL     1      27.216   2.140 -21.967  0.00  0.00    +0.063 A 
ATOM      5  C   UNL     1      27.256   3.285 -24.097  0.00  0.00    +0.008 A 
ATOM      6  C   UNL     1      26.748   2.255 -23.289  0.00  0.00    -0.023 A 
ATOM      7  C   UNL     1      26.623   1.081 -21.038  0.00  0.00    +0.163 C 
ATOM      8  C   UNL     1      25.668   1.361 -23.831  0.00  0.00    +0.056 C 
ATOM      9  N   UNL     1      25.368   0.508 -21.537  0.00  0.00    -0.289 N 
ATOM     10  C   UNL     1      25.374   0.152 -22.945  0.00  0.00    +0.113 C 
ATOM     11  C   UNL     1      24.395   0.047 -20.639  0.00  0.00    +0.283 C 
ATOM     12  O   UNL     1      24.668  -0.140 -19.453  0.00  0.00    -0.267 OA
ENDROOT
BRANCH  11  13
ATOM     13  C   UNL     1      22.987   0.023 -21.133  0.00  0.00    +0.194 A 
ATOM     14  O   UNL     1      22.080  -0.291 -20.118  0.00  0.00    -0.450 OA
ATOM     15  C   UNL     1      22.468  -0.672 -22.242  0.00  0.00    +0.008 A 
ATOM     16  C   UNL     1      21.837  -1.615 -20.346  0.00  0.00    +0.136 A 
ATOM     17  C   UNL     1      22.141  -1.922 -21.662  0.00  0.00    +0.024 A 
ATOM     18  C   UNL     1      22.301  -0.288 -23.659  0.00  0.00    +0.048 C 
ATOM     19  C   UNL     1      21.422  -2.520 -19.382  0.00  0.00    +0.050 A 
ATOM     20  C   UNL     1      22.029  -3.253 -22.087  0.00  0.00    +0.012 A 
ATOM     21  C   UNL     1      21.437  -3.857 -19.784  0.00  0.00    -0.047 A 
ATOM     22  C   UNL     1      21.738  -4.218 -21.105  0.00  0.00    +0.004 A 
ATOM     23  C   UNL     1      21.203  -4.935 -18.764  0.00  0.00    +0.044 C 
ENDBRANCH  11  13
BRANCH   1  25
ATOM     24  O   UNL     1      30.536   4.460 -20.914  0.00  0.00    -0.269 OA
ATOM     25  C   UNL     1      29.739   4.853 -21.765  0.00  0.00    +0.263 C 
ATOM     26  N   UNL     1      29.768   6.129 -22.287  0.00  0.00    -0.306 N 
ATOM     27  H   UNL     1      29.111   6.379 -22.977  0.00  0.00    +0.149 HD
BRANCH  26  28
ATOM     28  C   UNL     1      30.734   7.111 -21.849  0.00  0.00    +0.140 C 
BRANCH  28  29
ATOM     29  C   UNL     1      31.764   7.410 -22.905  0.00  0.00    -0.030 A 
ATOM     30  C   UNL     1      33.106   7.569 -22.557  0.00  0.00    +0.007 A 
ATOM     31  C   UNL     1      31.413   7.487 -24.258  0.00  0.00    +0.007 A 
ATOM     32  C   UNL     1      34.063   7.855 -23.535  0.00  0.00    +0.023 A 
ATOM     33  C   UNL     1      32.383   7.762 -25.234  0.00  0.00    +0.023 A 
ATOM     34  C   UNL     1      33.721   7.974 -24.892  0.00  0.00    +0.030 A 
BRANCH  34  35
ATOM     35  N   UNL     1      34.718   8.217 -25.819  0.00  0.00    -0.333 N 
ATOM     36  C   UNL     1      36.136   8.129 -25.453  0.00  0.00    +0.086 C 
ATOM     37  C   UNL     1      34.463   7.876 -27.230  0.00  0.00    +0.086 C 
ATOM     38  C   UNL     1      36.937   9.081 -26.371  0.00  0.00    -0.060 C 
ATOM     39  C   UNL     1      35.300   8.813 -28.135  0.00  0.00    -0.060 C 
ATOM     40  N   UNL     1      36.748   8.788 -27.812  0.00  0.00    +0.380 N 
ATOM     41  C   UNL     1      37.469   9.767 -28.624  0.00  0.00    -0.096 C 
ATOM     42  H   UNL     1      37.119   7.862 -28.021  0.00  0.00    -0.082 HD
ENDBRANCH  34  35
ENDBRANCH  28  29
ENDBRANCH  26  28
ENDBRANCH   1  25
TORSDOF 5
ENDMDL
MODEL 5
REMARK VINA RESULT:   -10.262      4.414     14.381
REMARK INTER + INTRA:         -14.206
REMARK INTER:                 -13.518
REMARK INTRA:                  -0.687
REMARK UNBOUND:                -0.944
REMARK  Name = CTX-1020458
REMARK  8 active torsions:
REMARK  status: ('A' for Active; 'I' for Inactive)
REMARK    1  A    between atoms: C_2  and  C_4
REMARK    2  A    between atoms: N_3  and  C_5
REMARK    3  A    between atoms: C_5  and  C_8
REMARK    4  A    between atoms: C_19  and  N_22
REMARK    5  A    between atoms: C_21  and  C_24
REMARK    6  A    between atoms: C_28  and  C_33
REMARK    7  A    between atoms: N_34  and  C_37
REMARK    8  A    between atoms: C_38  and  C_40
REMARK                            x       y       z     vdW  Elec       q    Type
REMARK                         _______ _______ _______ _____ _____    ______ ____
ROOT
ATOM      1  C   UNL     1      32.246   6.751 -21.329  0.00  0.00    +0.126 A 
ATOM      2  N   UNL     1      33.214   7.558 -21.857  0.00  0.00    -0.245 NA
ATOM      3  C   UNL     1      31.264   6.125 -22.083  0.00  0.00    +0.033 A 
ATOM      4  C   UNL     1      33.201   7.735 -23.216  0.00  0.00    +0.063 A 
ATOM      5  C   UNL     1      31.235   6.346 -23.452  0.00  0.00    +0.008 A 
ATOM      6  C   UNL     1      32.206   7.174 -24.038  0.00  0.00    -0.023 A 
ATOM      7  C   UNL     1      34.319   8.573 -23.836  0.00  0.00    +0.163 C 
ATOM      8  C   UNL     1      32.201   7.371 -25.528  0.00  0.00    +0.056 C 
ATOM      9  N   UNL     1      34.420   8.420 -25.292  0.00  0.00    -0.289 N 
ATOM     10  C   UNL     1      33.154   8.465 -26.003  0.00  0.00    +0.113 C 
ATOM     11  C   UNL     1      35.660   8.560 -25.933  0.00  0.00    +0.283 C 
ATOM     12  O   UNL     1      36.617   9.071 -25.352  0.00  0.00    -0.267 OA
ENDROOT
BRANCH  11  13
ATOM     13  C   UNL     1      35.818   7.859 -27.241  0.00  0.00    +0.194 A 
ATOM     14  O   UNL     1      36.865   6.934 -27.217  0.00  0.00    -0.450 OA
ATOM     15  C   UNL     1      35.935   8.429 -28.524  0.00  0.00    +0.008 A 
ATOM     16  C   UNL     1      37.872   7.619 -27.833  0.00  0.00    +0.136 A 
ATOM     17  C   UNL     1      37.335   8.628 -28.615  0.00  0.00    +0.024 A 
ATOM     18  C   UNL     1      34.927   8.782 -29.544  0.00  0.00    +0.048 C 
ATOM     19  C   UNL     1      39.223   7.380 -27.640  0.00  0.00    +0.050 A 
ATOM     20  C   UNL     1      38.206   9.499 -29.282  0.00  0.00    +0.012 A 
ATOM     21  C   UNL     1      40.075   8.331 -28.206  0.00  0.00    -0.047 A 
ATOM     22  C   UNL     1      39.579   9.370 -29.006  0.00  0.00    +0.004 A 
ATOM     23  C   UNL     1      41.543   8.285 -27.889  0.00  0.00    +0.044 C 
ENDBRANCH  11  13
BRANCH   1  25
ATOM     24  O   UNL     1      33.287   6.569 -19.200  0.00  0.00    -0.269 OA
ATOM     25  C   UNL     1      32.239   6.526 -19.843  0.00  0.00    +0.263 C 
ATOM     26  N   UNL     1      31.012   6.274 -19.264  0.00  0.00    -0.306 N 
ATOM     27  H   UNL     1      30.207   6.266 -19.831  0.00  0.00    +0.149 HD
BRANCH  26  28
ATOM     28  C   UNL     1      30.877   6.019 -17.848  0.00  0.00    +0.140 C 
BRANCH  28  29
ATOM     29  C   UNL     1      29.640   5.225 -17.526  0.00  0.00    -0.030 A 
ATOM     30  C   UNL     1      28.655   5.758 -16.692  0.00  0.00    +0.007 A 
ATOM     31  C   UNL     1      29.423   3.961 -18.088  0.00  0.00    +0.007 A 
ATOM     32  C   UNL     1      27.509   5.020 -16.385  0.00  0.00    +0.023 A 
ATOM     33  C   UNL     1      28.263   3.233 -17.783  0.00  0.00    +0.023 A 
ATOM     34  C   UNL     1      27.295   3.735 -16.909  0.00  0.00    +0.030 A 
BRANCH  34  35
ATOM     35  N   UNL     1      26.122   3.068 -16.604  0.00  0.00    -0.333 N 
ATOM     36  C   UNL     1      25.405   2.287 -17.617  0.00  0.00    +0.086 C 
ATOM     37  C   UNL     1      25.949   2.541 -15.238  0.00  0.00    +0.086 C 
ATOM     38  C   UNL     1      23.902   2.276 -17.252  0.00  0.00    -0.060 C 
ATOM     39  C   UNL     1      24.439   2.501 -14.901  0.00  0.00    -0.060 C 
ATOM     40  N   UNL     1      23.643   1.739 -15.894  0.00  0.00    +0.380 N 
ATOM     41  C   UNL     1      22.218   1.826 -15.582  0.00  0.00    -0.096 C 
ATOM     42  H   UNL     1      23.920   0.758 -15.860  0.00  0.00    -0.082 HD
ENDBRANCH  34  35
ENDBRANCH  28  29
ENDBRANCH  26  28
ENDBRANCH   1  25
TORSDOF 5
ENDMDL
