MODEL 1
REMARK VINA RESULT:   -12.305      0.000      0.000
REMARK INTER + INTRA:         -16.896
REMARK INTER:                 -15.902
REMARK INTRA:                  -0.995
REMARK UNBOUND:                -0.995
REMARK  Name = CTX-1020523
REMARK  7 active torsions:
REMARK  status: ('A' for Active; 'I' for Inactive)
REMARK    1  A    between atoms: C_2  and  C_4
REMARK    2  A    between atoms: N_3  and  C_5
REMARK    3  A    between atoms: C_5  and  C_8
REMARK    4  A    between atoms: C_19  and  N_22
REMARK    5  A    between atoms: C_21  and  C_24
REMARK    6  A    between atoms: C_28  and  C_33
REMARK    7  A    between atoms: N_34  and  C_37
REMARK                            x       y       z     vdW  Elec       q    Type
REMARK                         _______ _______ _______ _____ _____    ______ ____
ROOT
ATOM      1  C   UNL     1      28.749   5.049 -22.894  0.00  0.00    +0.216 A 
ATOM      2  N   UNL     1      28.501   3.886 -22.230  0.00  0.00    -0.227 NA
ATOM      3  N   UNL     1      28.116   5.473 -24.001  0.00  0.00    -0.232 NA
ATOM      4  C   UNL     1      27.534   3.086 -22.765  0.00  0.00    +0.066 A 
ATOM      5  C   UNL     1      27.155   4.668 -24.473  0.00  0.00    +0.118 A 
ATOM      6  C   UNL     1      26.826   3.453 -23.910  0.00  0.00    -0.005 A 
ATOM      7  C   UNL     1      27.261   1.732 -22.104  0.00  0.00    +0.163 C 
ATOM      8  C   UNL     1      25.701   2.631 -24.468  0.00  0.00    +0.057 C 
ATOM      9  N   UNL     1      25.985   1.145 -22.521  0.00  0.00    -0.289 N 
ATOM     10  C   UNL     1      25.696   1.197 -23.946  0.00  0.00    +0.113 C 
ATOM     11  C   UNL     1      25.241   0.350 -21.637  0.00  0.00    +0.283 C 
ATOM     12  O   UNL     1      25.777  -0.222 -20.691  0.00  0.00    -0.267 OA
ENDROOT
BRANCH  11  13
ATOM     13  C   UNL     1      23.780   0.482 -21.759  0.00  0.00    +0.194 A 
ATOM     14  O   UNL     1      23.284   1.678 -21.275  0.00  0.00    -0.450 OA
ATOM     15  C   UNL     1      22.749  -0.452 -21.631  0.00  0.00    +0.008 A 
ATOM     16  C   UNL     1      22.413   1.313 -20.305  0.00  0.00    +0.136 A 
ATOM     17  C   UNL     1      22.121  -0.036 -20.418  0.00  0.00    +0.024 A 
ATOM     18  C   UNL     1      22.419  -1.670 -22.408  0.00  0.00    +0.048 C 
ATOM     19  C   UNL     1      21.962   2.150 -19.298  0.00  0.00    +0.047 A 
ATOM     20  C   UNL     1      21.346  -0.637 -19.412  0.00  0.00    +0.012 A 
ATOM     21  C   UNL     1      21.249   1.525 -18.276  0.00  0.00    +0.004 A 
ATOM     22  C   UNL     1      20.965   0.155 -18.319  0.00  0.00    +0.001 A 
ENDBRANCH  11  13
BRANCH   1  24
ATOM     23  O   UNL     1      30.353   5.747 -21.244  0.00  0.00    -0.267 OA
ATOM     24  C   UNL     1      29.804   5.981 -22.331  0.00  0.00    +0.282 C 
ATOM     25  N   UNL     1      30.125   7.077 -23.103  0.00  0.00    -0.305 N 
ATOM     26  H   UNL     1      29.651   7.215 -23.954  0.00  0.00    +0.149 HD
BRANCH  25  27
ATOM     27  C   UNL     1      31.142   8.036 -22.703  0.00  0.00    +0.140 C 
BRANCH  27  28
ATOM     28  C   UNL     1      32.245   8.111 -23.724  0.00  0.00    -0.030 A 
ATOM     29  C   UNL     1      31.984   7.769 -25.055  0.00  0.00    +0.007 A 
ATOM     30  C   UNL     1      33.532   8.542 -23.388  0.00  0.00    +0.007 A 
ATOM     31  C   UNL     1      33.001   7.811 -26.008  0.00  0.00    +0.023 A 
ATOM     32  C   UNL     1      34.549   8.594 -24.357  0.00  0.00    +0.023 A 
ATOM     33  C   UNL     1      34.305   8.205 -25.678  0.00  0.00    +0.030 A 
BRANCH  33  34
ATOM     34  N   UNL     1      35.271   8.201 -26.682  0.00  0.00    -0.333 N 
ATOM     35  C   UNL     1      34.972   8.758 -28.011  0.00  0.00    +0.086 C 
ATOM     36  C   UNL     1      36.626   8.576 -26.222  0.00  0.00    +0.086 C 
ATOM     37  C   UNL     1      36.034   8.243 -29.019  0.00  0.00    -0.060 C 
ATOM     38  C   UNL     1      37.669   8.064 -27.240  0.00  0.00    -0.060 C 
ATOM     39  N   UNL     1      37.425   8.565 -28.614  0.00  0.00    +0.380 N 
ATOM     40  C   UNL     1      38.382   7.968 -29.545  0.00  0.00    -0.096 C 
ATOM     41  H   UNL     1      37.550   9.577 -28.634  0.00  0.00    -0.082 HD
ENDBRANCH  33  34
ENDBRANCH  27  28
ENDBRANCH  25  27
ENDBRANCH   1  24
TORSDOF 5
ENDMDL
MODEL 2
REMARK VINA RESULT:   -11.267      3.807      6.717
REMARK INTER + INTRA:         -15.555
REMARK INTER:                 -14.593
REMARK INTRA:                  -0.962
REMARK UNBOUND:                -0.995
REMARK  Name = CTX-1020523
REMARK  7 active torsions:
REMARK  status: ('A' for Active; 'I' for Inactive)
REMARK    1  A    between atoms: C_2  and  C_4
REMARK    2  A    between atoms: N_3  and  C_5
REMARK    3  A    between atoms: C_5  and  C_8
REMARK    4  A    between atoms: C_19  and  N_22
REMARK    5  A    between atoms: C_21  and  C_24
REMARK    6  A    between atoms: C_28  and  C_33
REMARK    7  A    between atoms: N_34  and  C_37
REMARK                            x       y       z     vdW  Elec       q    Type
REMARK                         _______ _______ _______ _____ _____    ______ ____
ROOT
ATOM      1  C   UNL     1      26.029   3.560 -16.072  0.00  0.00    +0.216 A 
ATOM      2  N   UNL     1      25.351   3.344 -17.233  0.00  0.00    -0.227 NA
ATOM      3  N   UNL     1      25.644   3.154 -14.850  0.00  0.00    -0.232 NA
ATOM      4  C   UNL     1      24.169   2.673 -17.121  0.00  0.00    +0.066 A 
ATOM      5  C   UNL     1      24.491   2.473 -14.793  0.00  0.00    +0.118 A 
ATOM      6  C   UNL     1      23.698   2.212 -15.891  0.00  0.00    -0.005 A 
ATOM      7  C   UNL     1      23.328   2.463 -18.383  0.00  0.00    +0.163 C 
ATOM      8  C   UNL     1      22.445   1.399 -15.753  0.00  0.00    +0.057 C 
ATOM      9  N   UNL     1      22.299   1.434 -18.214  0.00  0.00    -0.289 N 
ATOM     10  C   UNL     1      21.538   1.493 -16.976  0.00  0.00    +0.113 C 
ATOM     11  C   UNL     1      21.905   0.632 -19.295  0.00  0.00    +0.283 C 
ATOM     12  O   UNL     1      22.061   1.007 -20.455  0.00  0.00    -0.267 OA
ENDROOT
BRANCH  11  13
ATOM     13  C   UNL     1      21.567  -0.758 -18.950  0.00  0.00    +0.194 A 
ATOM     14  O   UNL     1      22.604  -1.651 -19.147  0.00  0.00    -0.450 OA
ATOM     15  C   UNL     1      20.386  -1.490 -19.093  0.00  0.00    +0.008 A 
ATOM     16  C   UNL     1      22.112  -2.548 -20.034  0.00  0.00    +0.136 A 
ATOM     17  C   UNL     1      20.736  -2.422 -20.116  0.00  0.00    +0.024 A 
ATOM     18  C   UNL     1      19.038  -1.315 -18.499  0.00  0.00    +0.048 C 
ATOM     19  C   UNL     1      22.889  -3.394 -20.809  0.00  0.00    +0.047 A 
ATOM     20  C   UNL     1      20.056  -3.168 -21.093  0.00  0.00    +0.012 A 
ATOM     21  C   UNL     1      22.206  -4.077 -21.814  0.00  0.00    +0.004 A 
ATOM     22  C   UNL     1      20.821  -3.952 -21.970  0.00  0.00    +0.001 A 
ENDBRANCH  11  13
BRANCH   1  24
ATOM     23  O   UNL     1      27.419   5.521 -16.025  0.00  0.00    -0.267 OA
ATOM     24  C   UNL     1      27.357   4.289 -16.144  0.00  0.00    +0.282 C 
ATOM     25  N   UNL     1      28.475   3.503 -16.327  0.00  0.00    -0.305 N 
ATOM     26  H   UNL     1      28.362   2.530 -16.423  0.00  0.00    +0.149 HD
BRANCH  25  27
ATOM     27  C   UNL     1      29.815   4.064 -16.381  0.00  0.00    +0.140 C 
BRANCH  27  28
ATOM     28  C   UNL     1      30.086   4.685 -17.725  0.00  0.00    -0.030 A 
ATOM     29  C   UNL     1      29.848   3.951 -18.890  0.00  0.00    +0.007 A 
ATOM     30  C   UNL     1      30.549   5.999 -17.848  0.00  0.00    +0.007 A 
ATOM     31  C   UNL     1      30.116   4.504 -20.142  0.00  0.00    +0.023 A 
ATOM     32  C   UNL     1      30.804   6.555 -19.114  0.00  0.00    +0.023 A 
ATOM     33  C   UNL     1      30.615   5.807 -20.281  0.00  0.00    +0.030 A 
BRANCH  33  34
ATOM     34  N   UNL     1      30.877   6.282 -21.564  0.00  0.00    -0.333 N 
ATOM     35  C   UNL     1      29.862   6.174 -22.624  0.00  0.00    +0.086 C 
ATOM     36  C   UNL     1      31.571   7.588 -21.598  0.00  0.00    +0.086 C 
ATOM     37  C   UNL     1      30.554   6.370 -23.999  0.00  0.00    -0.060 C 
ATOM     38  C   UNL     1      32.245   7.770 -22.976  0.00  0.00    -0.060 C 
ATOM     39  N   UNL     1      31.289   7.655 -24.104  0.00  0.00    +0.380 N 
ATOM     40  C   UNL     1      32.002   7.736 -25.377  0.00  0.00    -0.096 C 
ATOM     41  H   UNL     1      30.621   8.425 -24.062  0.00  0.00    -0.082 HD
ENDBRANCH  33  34
ENDBRANCH  27  28
ENDBRANCH  25  27
ENDBRANCH   1  24
TORSDOF 5
ENDMDL
MODEL 3
REMARK VINA RESULT:   -10.879      4.240      7.341
REMARK INTER + INTRA:         -15.054
REMARK INTER:                 -14.534
REMARK INTRA:                  -0.520
REMARK UNBOUND:                -0.995
REMARK  Name = CTX-1020523
REMARK  7 active torsions:
REMARK  status: ('A' for Active; 'I' for Inactive)
REMARK    1  A    between atoms: C_2  and  C_4
REMARK    2  A    between atoms: N_3  and  C_5
REMARK    3  A    between atoms: C_5  and  C_8
REMARK    4  A    between atoms: C_19  and  N_22
REMARK    5  A    between atoms: C_21  and  C_24
REMARK    6  A    between atoms: C_28  and  C_33
REMARK    7  A    between atoms: N_34  and  C_37
REMARK                            x       y       z     vdW  Elec       q    Type
REMARK                         _______ _______ _______ _____ _____    ______ ____
ROOT
ATOM      1  C   UNL     1      25.569   2.479 -15.827  0.00  0.00    +0.216 A 
ATOM      2  N   UNL     1      24.931   2.113 -16.973  0.00  0.00    -0.227 NA
ATOM      3  N   UNL     1      24.978   2.916 -14.703  0.00  0.00    -0.232 NA
ATOM      4  C   UNL     1      23.572   2.230 -16.966  0.00  0.00    +0.066 A 
ATOM      5  C   UNL     1      23.640   2.987 -14.732  0.00  0.00    +0.118 A 
ATOM      6  C   UNL     1      22.879   2.673 -15.838  0.00  0.00    -0.005 A 
ATOM      7  C   UNL     1      22.806   1.903 -18.250  0.00  0.00    +0.163 C 
ATOM      8  C   UNL     1      21.380   2.728 -15.777  0.00  0.00    +0.057 C 
ATOM      9  N   UNL     1      21.373   1.703 -18.019  0.00  0.00    -0.289 N 
ATOM     10  C   UNL     1      20.726   2.678 -17.154  0.00  0.00    +0.113 C 
ATOM     11  C   UNL     1      20.641   0.800 -18.804  0.00  0.00    +0.283 C 
ATOM     12  O   UNL     1      21.024   0.477 -19.926  0.00  0.00    -0.267 OA
ENDROOT
BRANCH  11  13
ATOM     13  C   UNL     1      19.574   0.078 -18.092  0.00  0.00    +0.194 A 
ATOM     14  O   UNL     1      18.505   0.875 -17.729  0.00  0.00    -0.450 OA
ATOM     15  C   UNL     1      19.618  -0.966 -17.165  0.00  0.00    +0.008 A 
ATOM     16  C   UNL     1      18.443   0.763 -16.381  0.00  0.00    +0.136 A 
ATOM     17  C   UNL     1      19.206  -0.314 -15.964  0.00  0.00    +0.024 A 
ATOM     18  C   UNL     1      20.101  -2.364 -17.274  0.00  0.00    +0.048 C 
ATOM     19  C   UNL     1      17.789   1.655 -15.548  0.00  0.00    +0.047 A 
ATOM     20  C   UNL     1      19.387  -0.508 -14.584  0.00  0.00    +0.012 A 
ATOM     21  C   UNL     1      18.031   1.486 -14.185  0.00  0.00    +0.004 A 
ATOM     22  C   UNL     1      18.832   0.440 -13.711  0.00  0.00    +0.001 A 
ENDBRANCH  11  13
BRANCH   1  24
ATOM     23  O   UNL     1      27.627   1.260 -15.571  0.00  0.00    -0.267 OA
ATOM     24  C   UNL     1      27.080   2.353 -15.779  0.00  0.00    +0.282 C 
ATOM     25  N   UNL     1      27.796   3.510 -16.000  0.00  0.00    -0.305 N 
ATOM     26  H   UNL     1      27.307   4.351 -16.152  0.00  0.00    +0.149 HD
BRANCH  25  27
ATOM     27  C   UNL     1      29.250   3.531 -16.016  0.00  0.00    +0.140 C 
BRANCH  27  28
ATOM     28  C   UNL     1      29.766   4.275 -17.218  0.00  0.00    -0.030 A 
ATOM     29  C   UNL     1      29.641   3.710 -18.491  0.00  0.00    +0.007 A 
ATOM     30  C   UNL     1      30.348   5.541 -17.106  0.00  0.00    +0.007 A 
ATOM     31  C   UNL     1      30.136   4.376 -19.612  0.00  0.00    +0.023 A 
ATOM     32  C   UNL     1      30.832   6.213 -18.242  0.00  0.00    +0.023 A 
ATOM     33  C   UNL     1      30.756   5.630 -19.510  0.00  0.00    +0.030 A 
BRANCH  33  34
ATOM     34  N   UNL     1      31.242   6.223 -20.673  0.00  0.00    -0.333 N 
ATOM     35  C   UNL     1      32.664   6.583 -20.792  0.00  0.00    +0.086 C 
ATOM     36  C   UNL     1      30.719   5.627 -21.922  0.00  0.00    +0.086 C 
ATOM     37  C   UNL     1      32.829   7.584 -21.966  0.00  0.00    -0.060 C 
ATOM     38  C   UNL     1      30.900   6.634 -23.080  0.00  0.00    -0.060 C 
ATOM     39  N   UNL     1      32.308   7.063 -23.255  0.00  0.00    +0.380 N 
ATOM     40  C   UNL     1      32.397   8.086 -24.296  0.00  0.00    -0.096 C 
ATOM     41  H   UNL     1      32.873   6.264 -23.543  0.00  0.00    -0.082 HD
ENDBRANCH  33  34
ENDBRANCH  27  28
ENDBRANCH  25  27
ENDBRANCH   1  24
TORSDOF 5
ENDMDL
MODEL 4
REMARK VINA RESULT:   -10.546      3.876     12.989
REMARK INTER + INTRA:         -14.623
REMARK INTER:                 -14.418
REMARK INTRA:                  -0.205
REMARK UNBOUND:                -0.995
REMARK  Name = CTX-1020523
REMARK  7 active torsions:
REMARK  status: ('A' for Active; 'I' for Inactive)
REMARK    1  A    between atoms: C_2  and  C_4
REMARK    2  A    between atoms: N_3  and  C_5
REMARK    3  A    between atoms: C_5  and  C_8
REMARK    4  A    between atoms: C_19  and  N_22
REMARK    5  A    between atoms: C_21  and  C_24
REMARK    6  A    between atoms: C_28  and  C_33
REMARK    7  A    between atoms: N_34  and  C_37
REMARK                            x       y       z     vdW  Elec       q    Type
REMARK                         _______ _______ _______ _____ _____    ______ ____
ROOT
ATOM      1  C   UNL     1      29.689   5.124 -17.754  0.00  0.00    +0.216 A 
ATOM      2  N   UNL     1      29.446   4.831 -19.061  0.00  0.00    -0.227 NA
ATOM      3  N   UNL     1      30.746   5.810 -17.285  0.00  0.00    -0.232 NA
ATOM      4  C   UNL     1      30.381   5.261 -19.956  0.00  0.00    +0.066 A 
ATOM      5  C   UNL     1      31.623   6.238 -18.204  0.00  0.00    +0.118 A 
ATOM      6  C   UNL     1      31.506   5.983 -19.554  0.00  0.00    -0.005 A 
ATOM      7  C   UNL     1      30.199   4.897 -21.432  0.00  0.00    +0.163 C 
ATOM      8  C   UNL     1      32.504   6.540 -20.527  0.00  0.00    +0.057 C 
ATOM      9  N   UNL     1      31.033   5.708 -22.323  0.00  0.00    -0.289 N 
ATOM     10  C   UNL     1      32.415   5.894 -21.906  0.00  0.00    +0.113 C 
ATOM     11  C   UNL     1      30.592   6.039 -23.612  0.00  0.00    +0.283 C 
ATOM     12  O   UNL     1      29.748   5.358 -24.189  0.00  0.00    -0.267 OA
ENDROOT
BRANCH  11  13
ATOM     13  C   UNL     1      30.991   7.374 -24.085  0.00  0.00    +0.194 A 
ATOM     14  O   UNL     1      31.324   7.417 -25.425  0.00  0.00    -0.450 OA
ATOM     15  C   UNL     1      31.709   8.401 -23.468  0.00  0.00    +0.008 A 
ATOM     16  C   UNL     1      32.604   7.858 -25.440  0.00  0.00    +0.136 A 
ATOM     17  C   UNL     1      32.931   8.392 -24.205  0.00  0.00    +0.024 A 
ATOM     18  C   UNL     1      31.423   9.223 -22.268  0.00  0.00    +0.048 C 
ATOM     19  C   UNL     1      33.476   7.705 -26.506  0.00  0.00    +0.047 A 
ATOM     20  C   UNL     1      34.264   8.772 -23.976  0.00  0.00    +0.012 A 
ATOM     21  C   UNL     1      34.806   8.026 -26.239  0.00  0.00    +0.004 A 
ATOM     22  C   UNL     1      35.199   8.528 -24.993  0.00  0.00    +0.001 A 
ENDBRANCH  11  13
BRANCH   1  24
ATOM     23  O   UNL     1      27.772   5.444 -16.338  0.00  0.00    -0.267 OA
ATOM     24  C   UNL     1      28.671   4.681 -16.721  0.00  0.00    +0.282 C 
ATOM     25  N   UNL     1      28.795   3.388 -16.258  0.00  0.00    -0.305 N 
ATOM     26  H   UNL     1      29.534   2.831 -16.593  0.00  0.00    +0.149 HD
BRANCH  25  27
ATOM     27  C   UNL     1      27.869   2.820 -15.292  0.00  0.00    +0.140 C 
BRANCH  27  28
ATOM     28  C   UNL     1      26.501   2.645 -15.893  0.00  0.00    -0.030 A 
ATOM     29  C   UNL     1      25.365   2.918 -15.126  0.00  0.00    +0.007 A 
ATOM     30  C   UNL     1      26.327   2.240 -17.220  0.00  0.00    +0.007 A 
ATOM     31  C   UNL     1      24.089   2.738 -15.661  0.00  0.00    +0.023 A 
ATOM     32  C   UNL     1      25.038   2.074 -17.757  0.00  0.00    +0.023 A 
ATOM     33  C   UNL     1      23.899   2.297 -16.979  0.00  0.00    +0.030 A 
BRANCH  33  34
ATOM     34  N   UNL     1      22.594   2.122 -17.434  0.00  0.00    -0.333 N 
ATOM     35  C   UNL     1      21.564   3.139 -17.166  0.00  0.00    +0.086 C 
ATOM     36  C   UNL     1      22.499   1.593 -18.813  0.00  0.00    +0.086 C 
ATOM     37  C   UNL     1      20.166   2.507 -17.395  0.00  0.00    -0.060 C 
ATOM     38  C   UNL     1      21.098   0.976 -19.025  0.00  0.00    -0.060 C 
ATOM     39  N   UNL     1      20.000   1.935 -18.755  0.00  0.00    +0.380 N 
ATOM     40  C   UNL     1      18.706   1.265 -18.876  0.00  0.00    -0.096 C 
ATOM     41  H   UNL     1      20.034   2.691 -19.439  0.00  0.00    -0.082 HD
ENDBRANCH  33  34
ENDBRANCH  27  28
ENDBRANCH  25  27
ENDBRANCH   1  24
TORSDOF 5
ENDMDL
MODEL 5
REMARK VINA RESULT:   -10.205      4.593     13.490
REMARK INTER + INTRA:         -14.182
REMARK INTER:                 -13.298
REMARK INTRA:                  -0.884
REMARK UNBOUND:                -0.995
REMARK  Name = CTX-1020523
REMARK  7 active torsions:
REMARK  status: ('A' for Active; 'I' for Inactive)
REMARK    1  A    between atoms: C_2  and  C_4
REMARK    2  A    between atoms: N_3  and  C_5
REMARK    3  A    between atoms: C_5  and  C_8
REMARK    4  A    between atoms: C_19  and  N_22
REMARK    5  A    between atoms: C_21  and  C_24
REMARK    6  A    between atoms: C_28  and  C_33
REMARK    7  A    between atoms: N_34  and  C_37
REMARK                            x       y       z     vdW  Elec       q    Type
REMARK                         _______ _______ _______ _____ _____    ______ ____
ROOT
ATOM      1  C   UNL     1      25.658   3.281 -16.563  0.00  0.00    +0.216 A 
ATOM      2  N   UNL     1      26.401   2.989 -17.667  0.00  0.00    -0.227 NA
ATOM      3  N   UNL     1      26.028   4.093 -15.558  0.00  0.00    -0.232 NA
ATOM      4  C   UNL     1      27.636   3.565 -17.727  0.00  0.00    +0.066 A 
ATOM      5  C   UNL     1      27.237   4.659 -15.675  0.00  0.00    +0.118 A 
ATOM      6  C   UNL     1      28.096   4.424 -16.727  0.00  0.00    -0.005 A 
ATOM      7  C   UNL     1      28.546   3.217 -18.908  0.00  0.00    +0.163 C 
ATOM      8  C   UNL     1      29.414   5.136 -16.812  0.00  0.00    +0.057 C 
ATOM      9  N   UNL     1      29.660   4.156 -19.061  0.00  0.00    -0.289 N 
ATOM     10  C   UNL     1      30.359   4.519 -17.838  0.00  0.00    +0.113 C 
ATOM     11  C   UNL     1      30.173   4.455 -20.332  0.00  0.00    +0.283 C 
ATOM     12  O   UNL     1      30.031   3.679 -21.274  0.00  0.00    -0.267 OA
ENDROOT
BRANCH  11  13
ATOM     13  C   UNL     1      30.627   5.844 -20.510  0.00  0.00    +0.194 A 
ATOM     14  O   UNL     1      29.888   6.560 -21.432  0.00  0.00    -0.450 OA
ATOM     15  C   UNL     1      31.903   6.412 -20.501  0.00  0.00    +0.008 A 
ATOM     16  C   UNL     1      30.792   6.942 -22.365  0.00  0.00    +0.136 A 
ATOM     17  C   UNL     1      32.075   6.774 -21.872  0.00  0.00    +0.024 A 
ATOM     18  C   UNL     1      32.933   6.512 -19.440  0.00  0.00    +0.048 C 
ATOM     19  C   UNL     1      30.472   7.347 -23.650  0.00  0.00    +0.047 A 
ATOM     20  C   UNL     1      33.156   6.979 -22.745  0.00  0.00    +0.012 A 
ATOM     21  C   UNL     1      31.553   7.483 -24.519  0.00  0.00    +0.004 A 
ATOM     22  C   UNL     1      32.868   7.282 -24.085  0.00  0.00    +0.001 A 
ENDBRANCH  11  13
BRANCH   1  24
ATOM     23  O   UNL     1      23.927   2.034 -15.453  0.00  0.00    -0.267 OA
ATOM     24  C   UNL     1      24.271   2.677 -16.456  0.00  0.00    +0.282 C 
ATOM     25  N   UNL     1      23.422   2.904 -17.518  0.00  0.00    -0.305 N 
ATOM     26  H   UNL     1      23.754   3.416 -18.291  0.00  0.00    +0.149 HD
BRANCH  25  27
ATOM     27  C   UNL     1      22.054   2.414 -17.536  0.00  0.00    +0.140 C 
BRANCH  27  28
ATOM     28  C   UNL     1      21.984   1.030 -18.122  0.00  0.00    -0.030 A 
ATOM     29  C   UNL     1      20.840   0.250 -17.927  0.00  0.00    +0.007 A 
ATOM     30  C   UNL     1      23.027   0.502 -18.888  0.00  0.00    +0.007 A 
ATOM     31  C   UNL     1      20.769  -1.044 -18.444  0.00  0.00    +0.023 A 
ATOM     32  C   UNL     1      22.943  -0.798 -19.417  0.00  0.00    +0.023 A 
ATOM     33  C   UNL     1      21.823  -1.601 -19.183  0.00  0.00    +0.030 A 
BRANCH  33  34
ATOM     34  N   UNL     1      21.685  -2.906 -19.648  0.00  0.00    -0.333 N 
ATOM     35  C   UNL     1      20.884  -3.888 -18.900  0.00  0.00    +0.086 C 
ATOM     36  C   UNL     1      21.459  -3.009 -21.107  0.00  0.00    +0.086 C 
ATOM     37  C   UNL     1      21.252  -5.313 -19.393  0.00  0.00    -0.060 C 
ATOM     38  C   UNL     1      21.821  -4.436 -21.578  0.00  0.00    -0.060 C 
ATOM     39  N   UNL     1      21.068  -5.489 -20.855  0.00  0.00    +0.380 N 
ATOM     40  C   UNL     1      21.526  -6.812 -21.274  0.00  0.00    -0.096 C 
ATOM     41  H   UNL     1      20.075  -5.409 -21.077  0.00  0.00    -0.082 HD
ENDBRANCH  33  34
ENDBRANCH  27  28
ENDBRANCH  25  27
ENDBRANCH   1  24
TORSDOF 5
ENDMDL
