MODEL 1
REMARK VINA RESULT:   -12.374      0.000      0.000
REMARK INTER + INTRA:         -16.784
REMARK INTER:                 -15.991
REMARK INTRA:                  -0.793
REMARK UNBOUND:                -0.793
REMARK  Name = CTX-1020459
REMARK  7 active torsions:
REMARK  status: ('A' for Active; 'I' for Inactive)
REMARK    1  A    between atoms: C_8  and  C_11
REMARK    2  A    between atoms: C_10  and  C_12
REMARK    3  A    between atoms: C_21  and  C_23
REMARK    4  A    between atoms: N_26  and  C_27
REMARK    5  A    between atoms: C_27  and  C_28
REMARK    6  A    between atoms: C_33  and  N_34
REMARK    7  A    between atoms: N_39  and  C_40
REMARK                            x       y       z     vdW  Elec       q    Type
REMARK                         _______ _______ _______ _____ _____    ______ ____
ROOT
ATOM      1  C   UNL     1      25.805   0.635 -20.094  0.00  0.00    +0.283 C 
ATOM      2  O   UNL     1      26.471   0.416 -19.073  0.00  0.00    -0.267 OA
ATOM      3  N   UNL     1      26.483   1.694 -20.970  0.00  0.00    -0.289 N 
ATOM      4  C   UNL     1      27.855   2.391 -20.741  0.00  0.00    +0.163 C 
ATOM      5  C   UNL     1      25.843   1.960 -22.177  0.00  0.00    +0.113 C 
ATOM      6  C   UNL     1      28.345   3.506 -21.824  0.00  0.00    +0.063 A 
ATOM      7  C   UNL     1      26.263   2.987 -23.191  0.00  0.00    +0.056 C 
ATOM      8  N   UNL     1      29.516   4.276 -21.701  0.00  0.00    -0.245 NA
ATOM      9  C   UNL     1      27.525   3.711 -22.937  0.00  0.00    -0.023 A 
ATOM     10  C   UNL     1      29.767   5.261 -22.682  0.00  0.00    +0.126 A 
ATOM     11  C   UNL     1      27.826   4.679 -23.902  0.00  0.00    +0.008 A 
ATOM     12  C   UNL     1      28.925   5.481 -23.758  0.00  0.00    +0.033 A 
ENDROOT
BRANCH   1  22
ATOM     13 CL   UNL     1      18.263  -2.056 -19.099  0.00  0.00    -0.084 Cl
ATOM     14  C   UNL     1      19.856  -1.961 -19.755  0.00  0.00    +0.042 A 
ATOM     15  C   UNL     1      20.774  -1.013 -19.263  0.00  0.00    +0.032 A 
ATOM     16  C   UNL     1      20.210  -2.823 -20.771  0.00  0.00    +0.023 A 
ATOM     17  C   UNL     1      22.120  -0.878 -19.766  0.00  0.00    +0.025 A 
ATOM     18  C   UNL     1      21.545  -2.711 -21.298  0.00  0.00    +0.048 A 
ATOM     19  C   UNL     1      22.526  -1.724 -20.799  0.00  0.00    +0.136 A 
ATOM     20  C   UNL     1      23.225  -0.004 -19.430  0.00  0.00    +0.008 A 
ATOM     21  O   UNL     1      23.931  -1.347 -21.109  0.00  0.00    -0.450 OA
ATOM     22  C   UNL     1      24.376  -0.242 -20.237  0.00  0.00    +0.194 A 
ATOM     23  C   UNL     1      23.095   1.007 -18.340  0.00  0.00    +0.048 C 
ENDBRANCH   1  22
BRANCH  10  24
ATOM     24  C   UNL     1      30.999   6.202 -22.764  0.00  0.00    +0.263 C 
ATOM     25  O   UNL     1      32.055   5.815 -22.259  0.00  0.00    -0.269 OA
ATOM     26  N   UNL     1      30.926   7.376 -23.360  0.00  0.00    -0.306 N 
ATOM     27  H   UNL     1      30.107   7.595 -23.861  0.00  0.00    +0.149 HD
BRANCH  26  28
ATOM     28  C   UNL     1      32.009   8.376 -23.313  0.00  0.00    +0.140 C 
BRANCH  28  29
ATOM     29  C   UNL     1      33.011   8.184 -24.422  0.00  0.00    -0.030 A 
ATOM     30  C   UNL     1      34.381   8.379 -24.198  0.00  0.00    +0.007 A 
ATOM     31  C   UNL     1      32.595   7.860 -25.709  0.00  0.00    +0.007 A 
ATOM     32  C   UNL     1      35.283   8.301 -25.269  0.00  0.00    +0.023 A 
ATOM     33  C   UNL     1      33.514   7.733 -26.757  0.00  0.00    +0.023 A 
ATOM     34  C   UNL     1      34.875   7.980 -26.576  0.00  0.00    +0.030 A 
BRANCH  34  35
ATOM     35  N   UNL     1      35.783   7.905 -27.611  0.00  0.00    -0.333 N 
ATOM     36  C   UNL     1      37.011   7.004 -27.653  0.00  0.00    +0.086 C 
ATOM     37  C   UNL     1      35.469   8.481 -28.929  0.00  0.00    +0.086 C 
ATOM     38  C   UNL     1      38.186   7.725 -28.273  0.00  0.00    -0.060 C 
ATOM     39  C   UNL     1      36.737   9.093 -29.568  0.00  0.00    -0.060 C 
ATOM     40  N   UNL     1      37.869   8.144 -29.628  0.00  0.00    +0.380 N 
ATOM     41  C   UNL     1      39.026   8.743 -30.284  0.00  0.00    -0.096 C 
ATOM     42  H   UNL     1      37.609   7.329 -30.184  0.00  0.00    -0.082 HD
ENDBRANCH  34  35
ENDBRANCH  28  29
ENDBRANCH  26  28
ENDBRANCH  10  24
TORSDOF 5
ENDMDL
MODEL 2
REMARK VINA RESULT:   -10.836      1.870      2.719
REMARK INTER + INTRA:         -14.797
REMARK INTER:                 -14.248
REMARK INTRA:                  -0.549
REMARK UNBOUND:                -0.793
REMARK  Name = CTX-1020459
REMARK  7 active torsions:
REMARK  status: ('A' for Active; 'I' for Inactive)
REMARK    1  A    between atoms: C_8  and  C_11
REMARK    2  A    between atoms: C_10  and  C_12
REMARK    3  A    between atoms: C_21  and  C_23
REMARK    4  A    between atoms: N_26  and  C_27
REMARK    5  A    between atoms: C_27  and  C_28
REMARK    6  A    between atoms: C_33  and  N_34
REMARK    7  A    between atoms: N_39  and  C_40
REMARK                            x       y       z     vdW  Elec       q    Type
REMARK                         _______ _______ _______ _____ _____    ______ ____
ROOT
ATOM      1  C   UNL     1      25.785   2.585 -23.592  0.00  0.00    +0.283 C 
ATOM      2  O   UNL     1      25.327   3.212 -24.556  0.00  0.00    -0.267 OA
ATOM      3  N   UNL     1      27.097   3.211 -23.107  0.00  0.00    -0.289 N 
ATOM      4  C   UNL     1      27.792   4.502 -23.629  0.00  0.00    +0.163 C 
ATOM      5  C   UNL     1      27.656   2.615 -21.981  0.00  0.00    +0.113 C 
ATOM      6  C   UNL     1      29.204   4.947 -22.948  0.00  0.00    +0.063 A 
ATOM      7  C   UNL     1      28.960   2.995 -21.335  0.00  0.00    +0.056 C 
ATOM      8  N   UNL     1      29.985   6.037 -23.373  0.00  0.00    -0.245 NA
ATOM      9  C   UNL     1      29.665   4.173 -21.880  0.00  0.00    -0.023 A 
ATOM     10  C   UNL     1      31.227   6.252 -22.736  0.00  0.00    +0.126 A 
ATOM     11  C   UNL     1      30.890   4.437 -21.256  0.00  0.00    +0.008 A 
ATOM     12  C   UNL     1      31.690   5.452 -21.706  0.00  0.00    +0.033 A 
ENDROOT
BRANCH   1  22
ATOM     13 CL   UNL     1      21.560  -2.669 -19.157  0.00  0.00    -0.084 Cl
ATOM     14  C   UNL     1      22.320  -1.999 -20.554  0.00  0.00    +0.042 A 
ATOM     15  C   UNL     1      23.025  -0.783 -20.467  0.00  0.00    +0.032 A 
ATOM     16  C   UNL     1      22.219  -2.672 -21.753  0.00  0.00    +0.023 A 
ATOM     17  C   UNL     1      23.683  -0.167 -21.595  0.00  0.00    +0.025 A 
ATOM     18  C   UNL     1      22.861  -2.080 -22.898  0.00  0.00    +0.048 A 
ATOM     19  C   UNL     1      23.606  -0.805 -22.833  0.00  0.00    +0.136 A 
ATOM     20  C   UNL     1      24.453   1.049 -21.754  0.00  0.00    +0.008 A 
ATOM     21  O   UNL     1      24.353   0.058 -23.786  0.00  0.00    -0.450 OA
ATOM     22  C   UNL     1      24.890   1.248 -23.097  0.00  0.00    +0.194 A 
ATOM     23  C   UNL     1      24.722   1.942 -20.589  0.00  0.00    +0.048 C 
ENDBRANCH   1  22
BRANCH  10  24
ATOM     24  C   UNL     1      32.235   7.399 -23.018  0.00  0.00    +0.263 C 
ATOM     25  O   UNL     1      32.699   8.009 -22.054  0.00  0.00    -0.269 OA
ATOM     26  N   UNL     1      32.590   7.710 -24.250  0.00  0.00    -0.306 N 
ATOM     27  H   UNL     1      32.299   7.120 -24.982  0.00  0.00    +0.149 HD
BRANCH  26  28
ATOM     28  C   UNL     1      33.402   8.896 -24.582  0.00  0.00    +0.140 C 
BRANCH  28  29
ATOM     29  C   UNL     1      34.564   8.559 -25.480  0.00  0.00    -0.030 A 
ATOM     30  C   UNL     1      35.861   8.431 -24.964  0.00  0.00    +0.007 A 
ATOM     31  C   UNL     1      34.386   8.416 -26.852  0.00  0.00    +0.007 A 
ATOM     32  C   UNL     1      36.942   8.224 -25.832  0.00  0.00    +0.023 A 
ATOM     33  C   UNL     1      35.468   8.157 -27.700  0.00  0.00    +0.023 A 
ATOM     34  C   UNL     1      36.776   8.085 -27.222  0.00  0.00    +0.030 A 
BRANCH  34  35
ATOM     35  N   UNL     1      37.856   7.878 -28.054  0.00  0.00    -0.333 N 
ATOM     36  C   UNL     1      39.230   7.382 -27.620  0.00  0.00    +0.086 C 
ATOM     37  C   UNL     1      37.680   7.825 -29.515  0.00  0.00    +0.086 C 
ATOM     38  C   UNL     1      40.324   8.107 -28.370  0.00  0.00    -0.060 C 
ATOM     39  C   UNL     1      38.890   8.470 -30.230  0.00  0.00    -0.060 C 
ATOM     40  N   UNL     1      40.185   7.900 -29.802  0.00  0.00    +0.380 N 
ATOM     41  C   UNL     1      41.294   8.498 -30.537  0.00  0.00    -0.096 C 
ATOM     42  H   UNL     1      40.207   6.900 -30.004  0.00  0.00    -0.082 HD
ENDBRANCH  34  35
ENDBRANCH  28  29
ENDBRANCH  26  28
ENDBRANCH  10  24
TORSDOF 5
ENDMDL
MODEL 3
REMARK VINA RESULT:    -9.926      6.788     16.892
REMARK INTER + INTRA:         -13.621
REMARK INTER:                 -12.766
REMARK INTRA:                  -0.854
REMARK UNBOUND:                -0.793
REMARK  Name = CTX-1020459
REMARK  7 active torsions:
REMARK  status: ('A' for Active; 'I' for Inactive)
REMARK    1  A    between atoms: C_8  and  C_11
REMARK    2  A    between atoms: C_10  and  C_12
REMARK    3  A    between atoms: C_21  and  C_23
REMARK    4  A    between atoms: N_26  and  C_27
REMARK    5  A    between atoms: C_27  and  C_28
REMARK    6  A    between atoms: C_33  and  N_34
REMARK    7  A    between atoms: N_39  and  C_40
REMARK                            x       y       z     vdW  Elec       q    Type
REMARK                         _______ _______ _______ _____ _____    ______ ____
ROOT
ATOM      1  C   UNL     1      39.523  10.804 -29.222  0.00  0.00    +0.283 C 
ATOM      2  O   UNL     1      40.091  11.500 -28.370  0.00  0.00    -0.267 OA
ATOM      3  N   UNL     1      38.292  10.111 -28.629  0.00  0.00    -0.289 N 
ATOM      4  C   UNL     1      37.705  10.263 -27.195  0.00  0.00    +0.163 C 
ATOM      5  C   UNL     1      37.546   9.357 -29.529  0.00  0.00    +0.113 C 
ATOM      6  C   UNL     1      36.384   9.392 -26.805  0.00  0.00    +0.063 A 
ATOM      7  C   UNL     1      36.330   8.536 -29.200  0.00  0.00    +0.056 C 
ATOM      8  N   UNL     1      35.799   9.362 -25.526  0.00  0.00    -0.245 NA
ATOM      9  C   UNL     1      35.817   8.614 -27.817  0.00  0.00    -0.023 A 
ATOM     10  C   UNL     1      34.702   8.496 -25.319  0.00  0.00    +0.126 A 
ATOM     11  C   UNL     1      34.711   7.790 -27.577  0.00  0.00    +0.008 A 
ATOM     12  C   UNL     1      34.175   7.700 -26.321  0.00  0.00    +0.033 A 
ENDROOT
BRANCH   1  22
ATOM     13 CL   UNL     1      41.220  12.288 -36.970  0.00  0.00    -0.084 Cl
ATOM     14  C   UNL     1      41.383  11.592 -35.400  0.00  0.00    +0.042 A 
ATOM     15  C   UNL     1      40.466  11.912 -34.380  0.00  0.00    +0.032 A 
ATOM     16  C   UNL     1      42.428  10.724 -35.162  0.00  0.00    +0.023 A 
ATOM     17  C   UNL     1      40.544  11.367 -33.045  0.00  0.00    +0.025 A 
ATOM     18  C   UNL     1      42.535  10.167 -33.839  0.00  0.00    +0.048 A 
ATOM     19  C   UNL     1      41.587  10.488 -32.751  0.00  0.00    +0.136 A 
ATOM     20  C   UNL     1      39.738  11.537 -31.853  0.00  0.00    +0.008 A 
ATOM     21  O   UNL     1      41.415  10.111 -31.322  0.00  0.00    -0.450 OA
ATOM     22  C   UNL     1      40.236  10.788 -30.747  0.00  0.00    +0.194 A 
ATOM     23  C   UNL     1      38.531  12.414 -31.865  0.00  0.00    +0.048 C 
ENDBRANCH   1  22
BRANCH  10  24
ATOM     24  C   UNL     1      33.887   8.320 -24.010  0.00  0.00    +0.263 C 
ATOM     25  O   UNL     1      33.633   9.328 -23.348  0.00  0.00    -0.269 OA
ATOM     26  N   UNL     1      33.473   7.131 -23.616  0.00  0.00    -0.306 N 
ATOM     27  H   UNL     1      33.583   6.371 -24.232  0.00  0.00    +0.149 HD
BRANCH  26  28
ATOM     28  C   UNL     1      32.852   6.886 -22.301  0.00  0.00    +0.140 C 
BRANCH  28  29
ATOM     29  C   UNL     1      31.547   6.141 -22.416  0.00  0.00    -0.030 A 
ATOM     30  C   UNL     1      31.279   5.026 -21.610  0.00  0.00    +0.007 A 
ATOM     31  C   UNL     1      30.598   6.511 -23.362  0.00  0.00    +0.007 A 
ATOM     32  C   UNL     1      30.105   4.285 -21.809  0.00  0.00    +0.023 A 
ATOM     33  C   UNL     1      29.406   5.793 -23.513  0.00  0.00    +0.023 A 
ATOM     34  C   UNL     1      29.140   4.645 -22.767  0.00  0.00    +0.030 A 
BRANCH  34  35
ATOM     35  N   UNL     1      27.993   3.901 -22.941  0.00  0.00    -0.333 N 
ATOM     36  C   UNL     1      27.539   2.746 -22.055  0.00  0.00    +0.086 C 
ATOM     37  C   UNL     1      26.923   4.366 -23.839  0.00  0.00    +0.086 C 
ATOM     38  C   UNL     1      26.945   1.632 -22.886  0.00  0.00    -0.060 C 
ATOM     39  C   UNL     1      26.269   3.169 -24.568  0.00  0.00    -0.060 C 
ATOM     40  N   UNL     1      25.802   2.115 -23.643  0.00  0.00    +0.380 N 
ATOM     41  C   UNL     1      25.146   1.031 -24.366  0.00  0.00    -0.096 C 
ATOM     42  H   UNL     1      25.108   2.500 -23.001  0.00  0.00    -0.082 HD
ENDBRANCH  34  35
ENDBRANCH  28  29
ENDBRANCH  26  28
ENDBRANCH  10  24
TORSDOF 5
ENDMDL
MODEL 4
REMARK VINA RESULT:    -9.572      5.744     15.245
REMARK INTER + INTRA:         -13.163
REMARK INTER:                 -12.818
REMARK INTRA:                  -0.345
REMARK UNBOUND:                -0.793
REMARK  Name = CTX-1020459
REMARK  7 active torsions:
REMARK  status: ('A' for Active; 'I' for Inactive)
REMARK    1  A    between atoms: C_8  and  C_11
REMARK    2  A    between atoms: C_10  and  C_12
REMARK    3  A    between atoms: C_21  and  C_23
REMARK    4  A    between atoms: N_26  and  C_27
REMARK    5  A    between atoms: C_27  and  C_28
REMARK    6  A    between atoms: C_33  and  N_34
REMARK    7  A    between atoms: N_39  and  C_40
REMARK                            x       y       z     vdW  Elec       q    Type
REMARK                         _______ _______ _______ _____ _____    ______ ____
ROOT
ATOM      1  C   UNL     1      35.267   8.062 -25.330  0.00  0.00    +0.283 C 
ATOM      2  O   UNL     1      36.283   8.003 -24.625  0.00  0.00    -0.267 OA
ATOM      3  N   UNL     1      34.019   7.694 -24.523  0.00  0.00    -0.289 N 
ATOM      4  C   UNL     1      33.924   7.362 -23.005  0.00  0.00    +0.163 C 
ATOM      5  C   UNL     1      32.815   7.797 -25.213  0.00  0.00    +0.113 C 
ATOM      6  C   UNL     1      32.464   6.981 -22.388  0.00  0.00    +0.063 A 
ATOM      7  C   UNL     1      31.456   7.445 -24.676  0.00  0.00    +0.056 C 
ATOM      8  N   UNL     1      32.242   6.576 -21.059  0.00  0.00    -0.245 NA
ATOM      9  C   UNL     1      31.372   7.049 -23.256  0.00  0.00    -0.023 A 
ATOM     10  C   UNL     1      30.931   6.201 -20.691  0.00  0.00    +0.126 A 
ATOM     11  C   UNL     1      30.082   6.696 -22.843  0.00  0.00    +0.008 A 
ATOM     12  C   UNL     1      29.865   6.235 -21.572  0.00  0.00    +0.033 A 
ENDROOT
BRANCH   1  22
ATOM     13 CL   UNL     1      38.650  10.554 -32.220  0.00  0.00    -0.084 Cl
ATOM     14  C   UNL     1      37.422   9.966 -31.160  0.00  0.00    +0.042 A 
ATOM     15  C   UNL     1      37.697   9.766 -29.793  0.00  0.00    +0.032 A 
ATOM     16  C   UNL     1      36.173   9.693 -31.675  0.00  0.00    +0.023 A 
ATOM     17  C   UNL     1      36.719   9.277 -28.851  0.00  0.00    +0.025 A 
ATOM     18  C   UNL     1      35.176   9.199 -30.761  0.00  0.00    +0.048 A 
ATOM     19  C   UNL     1      35.440   8.979 -29.323  0.00  0.00    +0.136 A 
ATOM     20  C   UNL     1      36.759   8.997 -27.431  0.00  0.00    +0.008 A 
ATOM     21  O   UNL     1      34.671   8.493 -28.146  0.00  0.00    -0.450 OA
ATOM     22  C   UNL     1      35.517   8.498 -26.937  0.00  0.00    +0.194 A 
ATOM     23  C   UNL     1      38.001   9.236 -26.639  0.00  0.00    +0.048 C 
ENDBRANCH   1  22
BRANCH  10  24
ATOM     24  C   UNL     1      30.450   5.751 -19.285  0.00  0.00    +0.263 C 
ATOM     25  O   UNL     1      30.352   6.610 -18.406  0.00  0.00    -0.269 OA
ATOM     26  N   UNL     1      30.149   4.492 -19.035  0.00  0.00    -0.306 N 
ATOM     27  H   UNL     1      30.116   3.861 -19.790  0.00  0.00    +0.149 HD
BRANCH  26  28
ATOM     28  C   UNL     1      29.857   3.983 -17.681  0.00  0.00    +0.140 C 
BRANCH  28  29
ATOM     29  C   UNL     1      28.390   3.712 -17.477  0.00  0.00    -0.030 A 
ATOM     30  C   UNL     1      27.669   4.365 -16.466  0.00  0.00    +0.007 A 
ATOM     31  C   UNL     1      27.725   2.769 -18.252  0.00  0.00    +0.007 A 
ATOM     32  C   UNL     1      26.332   4.019 -16.225  0.00  0.00    +0.023 A 
ATOM     33  C   UNL     1      26.375   2.472 -18.033  0.00  0.00    +0.023 A 
ATOM     34  C   UNL     1      25.650   3.061 -16.998  0.00  0.00    +0.030 A 
BRANCH  34  35
ATOM     35  N   UNL     1      24.334   2.742 -16.742  0.00  0.00    -0.333 N 
ATOM     36  C   UNL     1      23.491   1.747 -17.531  0.00  0.00    +0.086 C 
ATOM     37  C   UNL     1      23.705   3.114 -15.463  0.00  0.00    +0.086 C 
ATOM     38  C   UNL     1      22.077   2.256 -17.699  0.00  0.00    -0.060 C 
ATOM     39  C   UNL     1      22.225   3.504 -15.681  0.00  0.00    -0.060 C 
ATOM     40  N   UNL     1      21.455   2.468 -16.402  0.00  0.00    +0.380 N 
ATOM     41  C   UNL     1      20.054   2.852 -16.541  0.00  0.00    -0.096 C 
ATOM     42  H   UNL     1      21.467   1.596 -15.873  0.00  0.00    -0.082 HD
ENDBRANCH  34  35
ENDBRANCH  28  29
ENDBRANCH  26  28
ENDBRANCH  10  24
TORSDOF 5
ENDMDL
