MODEL 1
REMARK VINA RESULT:   -11.956      0.000      0.000
REMARK INTER + INTRA:         -16.263
REMARK INTER:                 -15.451
REMARK INTRA:                  -0.812
REMARK UNBOUND:                -0.812
REMARK  Name = CTX-1019758
REMARK  7 active torsions:
REMARK  status: ('A' for Active; 'I' for Inactive)
REMARK    1  A    between atoms: C_2  and  C_4
REMARK    2  A    between atoms: N_9  and  C_12
REMARK    3  A    between atoms: C_12  and  C_14
REMARK    4  A    between atoms: C_15  and  C_19
REMARK    5  A    between atoms: C_23  and  C_27
REMARK    6  A    between atoms: C_24  and  N_28
REMARK    7  A    between atoms: N_37  and  C_38
REMARK                            x       y       z     vdW  Elec       q    Type
REMARK                         _______ _______ _______ _____ _____    ______ ____
ROOT
ATOM      1  S   UNL     1      27.788   5.335 -23.762  0.00  0.00    -0.088 S 
ATOM      2  C   UNL     1      28.943   5.168 -22.507  0.00  0.00    +0.074 A 
ATOM      3  C   UNL     1      27.223   3.744 -23.547  0.00  0.00    -0.003 A 
ATOM      4  C   UNL     1      28.879   3.897 -21.948  0.00  0.00    +0.026 A 
ATOM      5  C   UNL     1      27.886   3.054 -22.549  0.00  0.00    -0.019 A 
ATOM      6  C   UNL     1      26.085   3.180 -24.339  0.00  0.00    +0.062 C 
ATOM      7  C   UNL     1      27.569   1.622 -22.182  0.00  0.00    +0.144 C 
ATOM      8  C   UNL     1      26.016   1.657 -24.146  0.00  0.00    +0.113 C 
ATOM      9  N   UNL     1      26.276   1.245 -22.762  0.00  0.00    -0.290 N 
ATOM     10  C   UNL     1      25.453   0.339 -22.083  0.00  0.00    +0.283 C 
ATOM     11  O   UNL     1      25.926  -0.476 -21.290  0.00  0.00    -0.267 OA
ENDROOT
BRANCH  10  12
ATOM     12  C   UNL     1      24.006   0.618 -22.162  0.00  0.00    +0.194 A 
ATOM     13  O   UNL     1      23.420   0.899 -20.940  0.00  0.00    -0.450 OA
ATOM     14  C   UNL     1      23.030  -0.065 -22.904  0.00  0.00    +0.008 A 
ATOM     15  C   UNL     1      22.676  -0.213 -20.693  0.00  0.00    +0.136 A 
ATOM     16  C   UNL     1      22.437  -0.875 -21.887  0.00  0.00    +0.024 A 
ATOM     17  C   UNL     1      22.880  -0.226 -24.367  0.00  0.00    +0.048 C 
ATOM     18  C   UNL     1      22.331  -0.663 -19.430  0.00  0.00    +0.047 A 
ATOM     19  C   UNL     1      21.792  -2.127 -21.833  0.00  0.00    +0.012 A 
ATOM     20  C   UNL     1      21.811  -1.956 -19.391  0.00  0.00    +0.004 A 
ATOM     21  C   UNL     1      21.553  -2.676 -20.566  0.00  0.00    +0.001 A 
ENDBRANCH  10  12
BRANCH   2  22
ATOM     22  C   UNL     1      29.853   6.242 -22.114  0.00  0.00    +0.251 C 
ATOM     23  O   UNL     1      30.282   6.335 -20.958  0.00  0.00    -0.270 OA
ATOM     24  N   UNL     1      30.226   7.151 -23.082  0.00  0.00    -0.307 N 
ATOM     25  H   UNL     1      29.848   7.059 -23.986  0.00  0.00    +0.149 HD
BRANCH  24  26
ATOM     26  C   UNL     1      31.152   8.240 -22.822  0.00  0.00    +0.139 C 
BRANCH  26  27
ATOM     27  C   UNL     1      32.291   8.266 -23.812  0.00  0.00    -0.030 A 
ATOM     28  C   UNL     1      32.099   7.794 -25.111  0.00  0.00    +0.007 A 
ATOM     29  C   UNL     1      33.539   8.816 -23.485  0.00  0.00    +0.007 A 
ATOM     30  C   UNL     1      33.142   7.834 -26.039  0.00  0.00    +0.023 A 
ATOM     31  C   UNL     1      34.580   8.860 -24.429  0.00  0.00    +0.023 A 
ATOM     32  C   UNL     1      34.408   8.349 -25.719  0.00  0.00    +0.030 A 
BRANCH  32  33
ATOM     33  N   UNL     1      35.392   8.350 -26.700  0.00  0.00    -0.333 N 
ATOM     34  C   UNL     1      35.118   8.815 -28.069  0.00  0.00    +0.086 C 
ATOM     35  C   UNL     1      36.741   8.746 -26.239  0.00  0.00    +0.086 C 
ATOM     36  C   UNL     1      36.207   8.249 -29.023  0.00  0.00    -0.060 C 
ATOM     37  C   UNL     1      37.798   8.166 -27.204  0.00  0.00    -0.060 C 
ATOM     38  N   UNL     1      37.588   8.598 -28.605  0.00  0.00    +0.380 N 
ATOM     39  C   UNL     1      38.571   7.962 -29.480  0.00  0.00    -0.096 C 
ATOM     40  H   UNL     1      37.710   9.609 -28.673  0.00  0.00    -0.082 HD
ENDBRANCH  32  33
ENDBRANCH  26  27
ENDBRANCH  24  26
ENDBRANCH   2  22
TORSDOF 5
ENDMDL
MODEL 2
REMARK VINA RESULT:   -10.936      4.476      7.025
REMARK INTER + INTRA:         -14.945
REMARK INTER:                 -14.061
REMARK INTRA:                  -0.884
REMARK UNBOUND:                -0.812
REMARK  Name = CTX-1019758
REMARK  7 active torsions:
REMARK  status: ('A' for Active; 'I' for Inactive)
REMARK    1  A    between atoms: C_2  and  C_4
REMARK    2  A    between atoms: N_9  and  C_12
REMARK    3  A    between atoms: C_12  and  C_14
REMARK    4  A    between atoms: C_15  and  C_19
REMARK    5  A    between atoms: C_23  and  C_27
REMARK    6  A    between atoms: C_24  and  N_28
REMARK    7  A    between atoms: N_37  and  C_38
REMARK                            x       y       z     vdW  Elec       q    Type
REMARK                         _______ _______ _______ _____ _____    ______ ____
ROOT
ATOM      1  S   UNL     1      24.495   2.178 -14.502  0.00  0.00    -0.088 S 
ATOM      2  C   UNL     1      25.526   2.788 -15.726  0.00  0.00    +0.074 A 
ATOM      3  C   UNL     1      23.155   2.146 -15.550  0.00  0.00    -0.003 A 
ATOM      4  C   UNL     1      24.827   2.962 -16.915  0.00  0.00    +0.026 A 
ATOM      5  C   UNL     1      23.442   2.599 -16.825  0.00  0.00    -0.019 A 
ATOM      6  C   UNL     1      21.814   1.632 -15.128  0.00  0.00    +0.062 C 
ATOM      7  C   UNL     1      22.411   2.675 -17.928  0.00  0.00    +0.144 C 
ATOM      8  C   UNL     1      20.753   2.018 -16.171  0.00  0.00    +0.113 C 
ATOM      9  N   UNL     1      21.234   1.886 -17.550  0.00  0.00    -0.290 N 
ATOM     10  C   UNL     1      20.494   1.233 -18.543  0.00  0.00    +0.283 C 
ATOM     11  O   UNL     1      20.500   1.635 -19.707  0.00  0.00    -0.267 OA
ENDROOT
BRANCH  10  12
ATOM     12  C   UNL     1      19.964  -0.092 -18.166  0.00  0.00    +0.194 A 
ATOM     13  O   UNL     1      20.942  -1.034 -17.902  0.00  0.00    -0.450 OA
ATOM     14  C   UNL     1      18.902  -0.799 -18.750  0.00  0.00    +0.008 A 
ATOM     15  C   UNL     1      20.861  -1.870 -18.973  0.00  0.00    +0.136 A 
ATOM     16  C   UNL     1      19.616  -1.733 -19.564  0.00  0.00    +0.024 A 
ATOM     17  C   UNL     1      17.463  -0.466 -18.835  0.00  0.00    +0.048 C 
ATOM     18  C   UNL     1      21.911  -2.634 -19.455  0.00  0.00    +0.047 A 
ATOM     19  C   UNL     1      19.376  -2.418 -20.772  0.00  0.00    +0.012 A 
ATOM     20  C   UNL     1      21.696  -3.197 -20.711  0.00  0.00    +0.004 A 
ATOM     21  C   UNL     1      20.458  -3.087 -21.360  0.00  0.00    +0.001 A 
ENDBRANCH  10  12
BRANCH   2  22
ATOM     22  C   UNL     1      26.943   3.076 -15.505  0.00  0.00    +0.251 C 
ATOM     23  O   UNL     1      27.532   2.678 -14.495  0.00  0.00    -0.270 OA
ATOM     24  N   UNL     1      27.605   3.804 -16.471  0.00  0.00    -0.307 N 
ATOM     25  H   UNL     1      27.098   4.123 -17.252  0.00  0.00    +0.149 HD
BRANCH  24  26
ATOM     26  C   UNL     1      29.020   4.122 -16.382  0.00  0.00    +0.139 C 
BRANCH  26  27
ATOM     27  C   UNL     1      29.561   4.674 -17.677  0.00  0.00    -0.030 A 
ATOM     28  C   UNL     1      29.990   6.001 -17.748  0.00  0.00    +0.007 A 
ATOM     29  C   UNL     1      29.710   3.869 -18.816  0.00  0.00    +0.007 A 
ATOM     30  C   UNL     1      30.512   6.512 -18.937  0.00  0.00    +0.023 A 
ATOM     31  C   UNL     1      30.245   4.392 -20.007  0.00  0.00    +0.023 A 
ATOM     32  C   UNL     1      30.635   5.731 -20.098  0.00  0.00    +0.030 A 
BRANCH  32  33
ATOM     33  N   UNL     1      31.163   6.319 -21.241  0.00  0.00    -0.333 N 
ATOM     34  C   UNL     1      30.319   7.078 -22.179  0.00  0.00    +0.086 C 
ATOM     35  C   UNL     1      32.498   6.932 -21.076  0.00  0.00    +0.086 C 
ATOM     36  C   UNL     1      31.047   7.175 -23.549  0.00  0.00    -0.060 C 
ATOM     37  C   UNL     1      33.196   7.010 -22.451  0.00  0.00    -0.060 C 
ATOM     38  N   UNL     1      32.405   7.768 -23.448  0.00  0.00    +0.380 N 
ATOM     39  C   UNL     1      33.078   7.746 -24.745  0.00  0.00    -0.096 C 
ATOM     40  H   UNL     1      32.320   8.740 -23.151  0.00  0.00    -0.082 HD
ENDBRANCH  32  33
ENDBRANCH  26  27
ENDBRANCH  24  26
ENDBRANCH   2  22
TORSDOF 5
ENDMDL
MODEL 3
REMARK VINA RESULT:   -10.211      4.336     14.579
REMARK INTER + INTRA:         -14.007
REMARK INTER:                 -13.372
REMARK INTRA:                  -0.635
REMARK UNBOUND:                -0.812
REMARK  Name = CTX-1019758
REMARK  7 active torsions:
REMARK  status: ('A' for Active; 'I' for Inactive)
REMARK    1  A    between atoms: C_2  and  C_4
REMARK    2  A    between atoms: N_9  and  C_12
REMARK    3  A    between atoms: C_12  and  C_14
REMARK    4  A    between atoms: C_15  and  C_19
REMARK    5  A    between atoms: C_23  and  C_27
REMARK    6  A    between atoms: C_24  and  N_28
REMARK    7  A    between atoms: N_37  and  C_38
REMARK                            x       y       z     vdW  Elec       q    Type
REMARK                         _______ _______ _______ _____ _____    ______ ____
ROOT
ATOM      1  S   UNL     1      36.396   7.749 -25.131  0.00  0.00    -0.088 S 
ATOM      2  C   UNL     1      34.771   8.291 -25.158  0.00  0.00    +0.074 A 
ATOM      3  C   UNL     1      36.565   7.956 -26.811  0.00  0.00    -0.003 A 
ATOM      4  C   UNL     1      34.383   8.616 -26.452  0.00  0.00    +0.026 A 
ATOM      5  C   UNL     1      35.417   8.419 -27.428  0.00  0.00    -0.019 A 
ATOM      6  C   UNL     1      37.854   7.700 -27.529  0.00  0.00    +0.062 C 
ATOM      7  C   UNL     1      35.320   8.669 -28.916  0.00  0.00    +0.144 C 
ATOM      8  C   UNL     1      37.612   7.669 -29.046  0.00  0.00    +0.113 C 
ATOM      9  N   UNL     1      36.667   8.698 -29.494  0.00  0.00    -0.290 N 
ATOM     10  C   UNL     1      36.931   9.533 -30.587  0.00  0.00    +0.283 C 
ATOM     11  O   UNL     1      36.029   9.885 -31.348  0.00  0.00    -0.267 OA
ENDROOT
BRANCH  10  12
ATOM     12  C   UNL     1      38.261  10.171 -30.586  0.00  0.00    +0.194 A 
ATOM     13  O   UNL     1      38.816  10.312 -29.326  0.00  0.00    -0.450 OA
ATOM     14  C   UNL     1      38.686  11.292 -31.317  0.00  0.00    +0.008 A 
ATOM     15  C   UNL     1      38.735  11.652 -29.102  0.00  0.00    +0.136 A 
ATOM     16  C   UNL     1      38.611  12.310 -30.316  0.00  0.00    +0.024 A 
ATOM     17  C   UNL     1      38.808  11.491 -32.777  0.00  0.00    +0.048 C 
ATOM     18  C   UNL     1      38.659  12.237 -27.849  0.00  0.00    +0.047 A 
ATOM     19  C   UNL     1      38.380  13.700 -30.296  0.00  0.00    +0.012 A 
ATOM     20  C   UNL     1      38.304  13.584 -27.852  0.00  0.00    +0.004 A 
ATOM     21  C   UNL     1      38.160  14.300 -29.049  0.00  0.00    +0.001 A 
ENDBRANCH  10  12
BRANCH   2  22
ATOM     22  C   UNL     1      33.940   8.379 -23.958  0.00  0.00    +0.251 C 
ATOM     23  O   UNL     1      33.563   9.469 -23.513  0.00  0.00    -0.270 OA
ATOM     24  N   UNL     1      33.583   7.200 -23.339  0.00  0.00    -0.307 N 
ATOM     25  H   UNL     1      33.919   6.352 -23.710  0.00  0.00    +0.149 HD
BRANCH  24  26
ATOM     26  C   UNL     1      32.732   7.156 -22.163  0.00  0.00    +0.139 C 
BRANCH  26  27
ATOM     27  C   UNL     1      31.546   6.243 -22.352  0.00  0.00    -0.030 A 
ATOM     28  C   UNL     1      30.657   6.460 -23.407  0.00  0.00    +0.007 A 
ATOM     29  C   UNL     1      31.335   5.128 -21.528  0.00  0.00    +0.007 A 
ATOM     30  C   UNL     1      29.569   5.608 -23.601  0.00  0.00    +0.023 A 
ATOM     31  C   UNL     1      30.240   4.270 -21.737  0.00  0.00    +0.023 A 
ATOM     32  C   UNL     1      29.323   4.507 -22.765  0.00  0.00    +0.030 A 
BRANCH  32  33
ATOM     33  N   UNL     1      28.215   3.709 -23.025  0.00  0.00    -0.333 N 
ATOM     34  C   UNL     1      27.703   2.749 -22.034  0.00  0.00    +0.086 C 
ATOM     35  C   UNL     1      27.123   4.373 -23.770  0.00  0.00    +0.086 C 
ATOM     36  C   UNL     1      26.821   1.696 -22.760  0.00  0.00    -0.060 C 
ATOM     37  C   UNL     1      26.268   3.302 -24.482  0.00  0.00    -0.060 C 
ATOM     38  N   UNL     1      25.713   2.301 -23.542  0.00  0.00    +0.380 N 
ATOM     39  C   UNL     1      24.977   1.274 -24.278  0.00  0.00    -0.096 C 
ATOM     40  H   UNL     1      25.064   2.756 -22.899  0.00  0.00    -0.082 HD
ENDBRANCH  32  33
ENDBRANCH  26  27
ENDBRANCH  24  26
ENDBRANCH   2  22
TORSDOF 5
ENDMDL
MODEL 4
REMARK VINA RESULT:   -10.045      6.802      9.474
REMARK INTER + INTRA:         -13.794
REMARK INTER:                 -14.098
REMARK INTRA:                   0.305
REMARK UNBOUND:                -0.812
REMARK  Name = CTX-1019758
REMARK  7 active torsions:
REMARK  status: ('A' for Active; 'I' for Inactive)
REMARK    1  A    between atoms: C_2  and  C_4
REMARK    2  A    between atoms: N_9  and  C_12
REMARK    3  A    between atoms: C_12  and  C_14
REMARK    4  A    between atoms: C_15  and  C_19
REMARK    5  A    between atoms: C_23  and  C_27
REMARK    6  A    between atoms: C_24  and  N_28
REMARK    7  A    between atoms: N_37  and  C_38
REMARK                            x       y       z     vdW  Elec       q    Type
REMARK                         _______ _______ _______ _____ _____    ______ ____
ROOT
ATOM      1  S   UNL     1      21.943   2.062 -20.058  0.00  0.00    -0.088 S 
ATOM      2  C   UNL     1      22.832   0.603 -20.190  0.00  0.00    +0.074 A 
ATOM      3  C   UNL     1      20.600   1.263 -19.384  0.00  0.00    -0.003 A 
ATOM      4  C   UNL     1      22.085  -0.471 -19.721  0.00  0.00    +0.026 A 
ATOM      5  C   UNL     1      20.779  -0.102 -19.255  0.00  0.00    -0.019 A 
ATOM      6  C   UNL     1      19.370   1.992 -18.938  0.00  0.00    +0.062 C 
ATOM      7  C   UNL     1      19.722  -1.025 -18.692  0.00  0.00    +0.144 C 
ATOM      8  C   UNL     1      18.235   0.990 -18.673  0.00  0.00    +0.113 C 
ATOM      9  N   UNL     1      18.697  -0.232 -18.005  0.00  0.00    -0.290 N 
ATOM     10  C   UNL     1      18.048  -0.765 -16.885  0.00  0.00    +0.283 C 
ATOM     11  O   UNL     1      17.960  -1.983 -16.723  0.00  0.00    -0.267 OA
ENDROOT
BRANCH  10  12
ATOM     12  C   UNL     1      17.748   0.200 -15.811  0.00  0.00    +0.194 A 
ATOM     13  O   UNL     1      17.954   1.521 -16.169  0.00  0.00    -0.450 OA
ATOM     14  C   UNL     1      18.087   0.117 -14.451  0.00  0.00    +0.008 A 
ATOM     15  C   UNL     1      19.070   1.860 -15.467  0.00  0.00    +0.136 A 
ATOM     16  C   UNL     1      19.221   0.986 -14.402  0.00  0.00    +0.024 A 
ATOM     17  C   UNL     1      17.672  -0.859 -13.421  0.00  0.00    +0.048 C 
ATOM     18  C   UNL     1      19.968   2.843 -15.846  0.00  0.00    +0.047 A 
ATOM     19  C   UNL     1      20.393   1.084 -13.625  0.00  0.00    +0.012 A 
ATOM     20  C   UNL     1      21.173   2.837 -15.145  0.00  0.00    +0.004 A 
ATOM     21  C   UNL     1      21.384   1.972 -14.062  0.00  0.00    +0.001 A 
ENDBRANCH  10  12
BRANCH   2  22
ATOM     22  C   UNL     1      24.188   0.542 -20.733  0.00  0.00    +0.251 C 
ATOM     23  O   UNL     1      24.757  -0.537 -20.929  0.00  0.00    -0.270 OA
ATOM     24  N   UNL     1      24.812   1.736 -21.027  0.00  0.00    -0.307 N 
ATOM     25  H   UNL     1      24.337   2.577 -20.839  0.00  0.00    +0.149 HD
BRANCH  24  26
ATOM     26  C   UNL     1      26.144   1.804 -21.603  0.00  0.00    +0.139 C 
BRANCH  26  27
ATOM     27  C   UNL     1      26.112   2.153 -23.071  0.00  0.00    -0.030 A 
ATOM     28  C   UNL     1      25.682   1.209 -24.005  0.00  0.00    +0.007 A 
ATOM     29  C   UNL     1      26.447   3.434 -23.532  0.00  0.00    +0.007 A 
ATOM     30  C   UNL     1      25.630   1.530 -25.362  0.00  0.00    +0.023 A 
ATOM     31  C   UNL     1      26.382   3.751 -24.901  0.00  0.00    +0.023 A 
ATOM     32  C   UNL     1      25.994   2.798 -25.845  0.00  0.00    +0.030 A 
BRANCH  32  33
ATOM     33  N   UNL     1      25.915   3.035 -27.213  0.00  0.00    -0.333 N 
ATOM     34  C   UNL     1      26.046   1.946 -28.194  0.00  0.00    +0.086 C 
ATOM     35  C   UNL     1      24.903   4.032 -27.622  0.00  0.00    +0.086 C 
ATOM     36  C   UNL     1      26.410   2.554 -29.578  0.00  0.00    -0.060 C 
ATOM     37  C   UNL     1      25.294   4.619 -28.995  0.00  0.00    -0.060 C 
ATOM     38  N   UNL     1      25.438   3.578 -30.039  0.00  0.00    +0.380 N 
ATOM     39  C   UNL     1      25.879   4.183 -31.295  0.00  0.00    -0.096 C 
ATOM     40  H   UNL     1      24.536   3.129 -30.202  0.00  0.00    -0.082 HD
ENDBRANCH  32  33
ENDBRANCH  26  27
ENDBRANCH  24  26
ENDBRANCH   2  22
TORSDOF 5
ENDMDL
