MODEL 1
REMARK VINA RESULT:   -12.819      0.000      0.000
REMARK INTER + INTRA:         -16.496
REMARK INTER:                 -15.817
REMARK INTRA:                  -0.679
REMARK UNBOUND:                -0.679
REMARK  Name = CTX-1019660
REMARK  6 active torsions:
REMARK  status: ('A' for Active; 'I' for Inactive)
REMARK    1  A    between atoms: C_2  and  C_4
REMARK    2  A    between atoms: N_3  and  C_5
REMARK    3  A    between atoms: C_5  and  C_8
REMARK    4  A    between atoms: C_19  and  N_22
REMARK    5  A    between atoms: C_21  and  C_24
REMARK    6  A    between atoms: N_34  and  C_37
REMARK                            x       y       z     vdW  Elec       q    Type
REMARK                         _______ _______ _______ _____ _____    ______ ____
ROOT
ATOM      1  C   UNL     1      29.015   4.598 -22.764  0.00  0.00    +0.126 A 
ATOM      2  N   UNL     1      28.706   3.472 -22.011  0.00  0.00    -0.245 NA
ATOM      3  C   UNL     1      28.281   5.018 -23.858  0.00  0.00    +0.033 A 
ATOM      4  C   UNL     1      27.533   2.759 -22.326  0.00  0.00    +0.063 A 
ATOM      5  C   UNL     1      27.183   4.226 -24.231  0.00  0.00    +0.008 A 
ATOM      6  C   UNL     1      26.803   3.075 -23.476  0.00  0.00    -0.023 A 
ATOM      7  C   UNL     1      26.980   1.563 -21.378  0.00  0.00    +0.163 C 
ATOM      8  C   UNL     1      25.568   2.272 -23.851  0.00  0.00    +0.056 C 
ATOM      9  N   UNL     1      25.377   1.119 -21.519  0.00  0.00    -0.291 N 
ATOM     10  C   UNL     1      25.296   0.919 -23.051  0.00  0.00    +0.113 C 
ATOM     11  C   UNL     1      24.343   0.891 -20.145  0.00  0.00    +0.251 C 
ATOM     12  O   UNL     1      24.982   1.193 -19.116  0.00  0.00    -0.270 OA
ENDROOT
BRANCH  11  13
ATOM     13  C   UNL     1      22.748   0.055 -19.779  0.00  0.00    +0.083 A 
ATOM     14  C   UNL     1      21.339  -0.455 -18.838  0.00  0.00    +0.097 A 
ATOM     15  C   UNL     1      23.071  -1.259 -19.982  0.00  0.00    +0.148 A 
ATOM     16  N   UNL     1      21.058  -1.544 -19.686  0.00  0.00    -0.236 N 
ATOM     17  C   UNL     1      19.992  -0.675 -17.618  0.00  0.00    +0.139 A 
ATOM     18  N   UNL     1      22.042  -1.793 -20.583  0.00  0.00    -0.174 NA
ATOM     19  C   UNL     1      20.068  -2.481 -19.468  0.00  0.00    +0.132 A 
ATOM     20  N   UNL     1      19.195  -1.946 -17.369  0.00  0.00    -0.260 NA
ATOM     21  C   UNL     1      19.655  -2.910 -18.264  0.00  0.00    +0.130 A 
ENDBRANCH  11  13
BRANCH   1  23
ATOM     22  O   UNL     1      31.107   5.143 -21.760  0.00  0.00    -0.269 OA
ATOM     23  C   UNL     1      30.173   5.550 -22.354  0.00  0.00    +0.263 C 
ATOM     24  N   UNL     1      30.029   6.912 -22.729  0.00  0.00    -0.306 N 
ATOM     25  H   UNL     1      29.241   7.192 -23.249  0.00  0.00    +0.149 HD
BRANCH  24  26
ATOM     26  C   UNL     1      31.039   7.909 -22.351  0.00  0.00    +0.140 C 
BRANCH  26  27
ATOM     27  C   UNL     1      32.100   8.138 -23.420  0.00  0.00    -0.030 A 
ATOM     28  C   UNL     1      31.883   7.722 -24.735  0.00  0.00    +0.007 A 
ATOM     29  C   UNL     1      33.334   8.730 -23.114  0.00  0.00    +0.007 A 
ATOM     30  C   UNL     1      32.869   7.878 -25.716  0.00  0.00    +0.023 A 
ATOM     31  C   UNL     1      34.357   8.784 -24.071  0.00  0.00    +0.023 A 
ATOM     32  C   UNL     1      34.130   8.397 -25.407  0.00  0.00    +0.030 A 
BRANCH  32  33
ATOM     33  N   UNL     1      35.083   8.576 -26.386  0.00  0.00    -0.333 N 
ATOM     34  C   UNL     1      34.727   8.488 -27.798  0.00  0.00    +0.086 C 
ATOM     35  C   UNL     1      36.425   9.106 -26.099  0.00  0.00    +0.086 C 
ATOM     36  C   UNL     1      35.815   7.701 -28.560  0.00  0.00    -0.060 C 
ATOM     37  C   UNL     1      37.471   8.326 -26.928  0.00  0.00    -0.060 C 
ATOM     38  N   UNL     1      37.150   8.325 -28.377  0.00  0.00    +0.380 N 
ATOM     39  C   UNL     1      38.165   7.620 -29.146  0.00  0.00    -0.096 C 
ATOM     40  H   UNL     1      37.134   9.284 -28.722  0.00  0.00    -0.082 HD
ENDBRANCH  32  33
ENDBRANCH  26  27
ENDBRANCH  24  26
ENDBRANCH   1  23
TORSDOF 5
ENDMDL
MODEL 2
REMARK VINA RESULT:   -11.542      4.059     14.961
REMARK INTER + INTRA:         -14.920
REMARK INTER:                 -14.320
REMARK INTRA:                  -0.600
REMARK UNBOUND:                -0.679
REMARK  Name = CTX-1019660
REMARK  6 active torsions:
REMARK  status: ('A' for Active; 'I' for Inactive)
REMARK    1  A    between atoms: C_2  and  C_4
REMARK    2  A    between atoms: N_3  and  C_5
REMARK    3  A    between atoms: C_5  and  C_8
REMARK    4  A    between atoms: C_19  and  N_22
REMARK    5  A    between atoms: C_21  and  C_24
REMARK    6  A    between atoms: N_34  and  C_37
REMARK                            x       y       z     vdW  Elec       q    Type
REMARK                         _______ _______ _______ _____ _____    ______ ____
ROOT
ATOM      1  C   UNL     1      30.918   6.113 -20.691  0.00  0.00    +0.126 A 
ATOM      2  N   UNL     1      31.834   7.030 -21.194  0.00  0.00    -0.245 NA
ATOM      3  C   UNL     1      29.993   5.443 -21.470  0.00  0.00    +0.033 A 
ATOM      4  C   UNL     1      31.881   7.230 -22.587  0.00  0.00    +0.063 A 
ATOM      5  C   UNL     1      29.976   5.746 -22.841  0.00  0.00    +0.008 A 
ATOM      6  C   UNL     1      30.912   6.658 -23.417  0.00  0.00    -0.023 A 
ATOM      7  C   UNL     1      33.051   8.116 -23.282  0.00  0.00    +0.163 C 
ATOM      8  C   UNL     1      30.926   6.918 -24.913  0.00  0.00    +0.056 C 
ATOM      9  N   UNL     1      33.342   7.902 -24.913  0.00  0.00    -0.291 N 
ATOM     10  C   UNL     1      31.902   8.057 -25.457  0.00  0.00    +0.113 C 
ATOM     11  C   UNL     1      34.938   7.708 -25.563  0.00  0.00    +0.251 C 
ATOM     12  O   UNL     1      35.749   7.676 -24.614  0.00  0.00    -0.270 OA
ENDROOT
BRANCH  11  13
ATOM     13  C   UNL     1      35.757   7.857 -27.201  0.00  0.00    +0.083 A 
ATOM     14  C   UNL     1      37.069   7.852 -28.388  0.00  0.00    +0.097 A 
ATOM     15  C   UNL     1      35.482   9.156 -27.531  0.00  0.00    +0.148 A 
ATOM     16  N   UNL     1      36.348   8.628 -29.317  0.00  0.00    -0.236 N 
ATOM     17  C   UNL     1      38.628   7.641 -29.325  0.00  0.00    +0.139 A 
ATOM     18  N   UNL     1      35.208   9.152 -28.808  0.00  0.00    -0.174 NA
ATOM     19  C   UNL     1      36.851   9.098 -30.513  0.00  0.00    +0.132 A 
ATOM     20  N   UNL     1      39.108   8.497 -30.487  0.00  0.00    -0.260 NA
ATOM     21  C   UNL     1      38.127   9.456 -30.733  0.00  0.00    +0.130 A 
ENDBRANCH  11  13
BRANCH   1  23
ATOM     22  O   UNL     1      31.658   6.221 -18.428  0.00  0.00    -0.269 OA
ATOM     23  C   UNL     1      30.942   5.686 -19.197  0.00  0.00    +0.263 C 
ATOM     24  N   UNL     1      30.068   4.629 -18.833  0.00  0.00    -0.306 N 
ATOM     25  H   UNL     1      29.470   4.236 -19.511  0.00  0.00    +0.149 HD
BRANCH  24  26
ATOM     26  C   UNL     1      30.042   4.111 -17.459  0.00  0.00    +0.140 C 
BRANCH  26  27
ATOM     27  C   UNL     1      28.646   3.743 -16.971  0.00  0.00    -0.030 A 
ATOM     28  C   UNL     1      28.146   2.454 -17.160  0.00  0.00    +0.007 A 
ATOM     29  C   UNL     1      27.809   4.689 -16.362  0.00  0.00    +0.007 A 
ATOM     30  C   UNL     1      26.847   2.116 -16.765  0.00  0.00    +0.023 A 
ATOM     31  C   UNL     1      26.474   4.378 -16.071  0.00  0.00    +0.023 A 
ATOM     32  C   UNL     1      25.977   3.068 -16.226  0.00  0.00    +0.030 A 
BRANCH  32  33
ATOM     33  N   UNL     1      24.710   2.719 -15.812  0.00  0.00    -0.333 N 
ATOM     34  C   UNL     1      23.618   2.599 -16.772  0.00  0.00    +0.086 C 
ATOM     35  C   UNL     1      24.430   2.207 -14.461  0.00  0.00    +0.086 C 
ATOM     36  C   UNL     1      22.339   3.234 -16.186  0.00  0.00    -0.060 C 
ATOM     37  C   UNL     1      23.112   2.826 -13.942  0.00  0.00    -0.060 C 
ATOM     38  N   UNL     1      21.984   2.613 -14.884  0.00  0.00    +0.380 N 
ATOM     39  C   UNL     1      20.744   3.168 -14.362  0.00  0.00    -0.096 C 
ATOM     40  H   UNL     1      21.829   1.614 -15.009  0.00  0.00    -0.082 HD
ENDBRANCH  32  33
ENDBRANCH  26  27
ENDBRANCH  24  26
ENDBRANCH   1  23
TORSDOF 5
ENDMDL
MODEL 3
REMARK VINA RESULT:   -11.477      1.596      2.434
REMARK INTER + INTRA:         -14.839
REMARK INTER:                 -14.174
REMARK INTRA:                  -0.665
REMARK UNBOUND:                -0.679
REMARK  Name = CTX-1019660
REMARK  6 active torsions:
REMARK  status: ('A' for Active; 'I' for Inactive)
REMARK    1  A    between atoms: C_2  and  C_4
REMARK    2  A    between atoms: N_3  and  C_5
REMARK    3  A    between atoms: C_5  and  C_8
REMARK    4  A    between atoms: C_19  and  N_22
REMARK    5  A    between atoms: C_21  and  C_24
REMARK    6  A    between atoms: N_34  and  C_37
REMARK                            x       y       z     vdW  Elec       q    Type
REMARK                         _______ _______ _______ _____ _____    ______ ____
ROOT
ATOM      1  C   UNL     1      30.296   5.500 -22.803  0.00  0.00    +0.126 A 
ATOM      2  N   UNL     1      30.083   4.250 -22.234  0.00  0.00    -0.245 NA
ATOM      3  C   UNL     1      29.360   6.164 -23.575  0.00  0.00    +0.033 A 
ATOM      4  C   UNL     1      28.814   3.656 -22.381  0.00  0.00    +0.063 A 
ATOM      5  C   UNL     1      28.144   5.502 -23.811  0.00  0.00    +0.008 A 
ATOM      6  C   UNL     1      27.860   4.230 -23.228  0.00  0.00    -0.023 A 
ATOM      7  C   UNL     1      28.406   2.305 -21.580  0.00  0.00    +0.163 C 
ATOM      8  C   UNL     1      26.511   3.563 -23.434  0.00  0.00    +0.056 C 
ATOM      9  N   UNL     1      26.784   1.950 -21.403  0.00  0.00    -0.291 N 
ATOM     10  C   UNL     1      26.326   2.081 -22.875  0.00  0.00    +0.113 C 
ATOM     11  C   UNL     1      26.090   1.469 -19.887  0.00  0.00    +0.251 C 
ATOM     12  O   UNL     1      26.977   1.527 -19.012  0.00  0.00    -0.270 OA
ENDROOT
BRANCH  11  13
ATOM     13  C   UNL     1      24.564   0.624 -19.308  0.00  0.00    +0.083 A 
ATOM     14  C   UNL     1      23.242  -0.551 -19.294  0.00  0.00    +0.097 A 
ATOM     15  C   UNL     1      23.646   1.636 -19.372  0.00  0.00    +0.148 A 
ATOM     16  N   UNL     1      22.421   0.251 -18.476  0.00  0.00    -0.236 N 
ATOM     17  C   UNL     1      22.117  -1.976 -19.535  0.00  0.00    +0.139 A 
ATOM     18  N   UNL     1      22.896   1.508 -18.311  0.00  0.00    -0.174 NA
ATOM     19  C   UNL     1      21.121  -0.050 -18.124  0.00  0.00    +0.132 A 
ATOM     20  N   UNL     1      20.610  -1.984 -19.330  0.00  0.00    -0.260 NA
ATOM     21  C   UNL     1      20.242  -0.714 -18.892  0.00  0.00    +0.130 A 
ENDBRANCH  11  13
BRANCH   1  23
ATOM     22  O   UNL     1      32.053   6.340 -21.429  0.00  0.00    -0.269 OA
ATOM     23  C   UNL     1      31.592   6.307 -22.514  0.00  0.00    +0.263 C 
ATOM     24  N   UNL     1      32.165   6.990 -23.619  0.00  0.00    -0.306 N 
ATOM     25  H   UNL     1      31.753   6.905 -24.510  0.00  0.00    +0.149 HD
BRANCH  24  26
ATOM     26  C   UNL     1      33.363   7.823 -23.451  0.00  0.00    +0.140 C 
BRANCH  26  27
ATOM     27  C   UNL     1      34.176   7.986 -24.729  0.00  0.00    -0.030 A 
ATOM     28  C   UNL     1      33.554   7.932 -25.977  0.00  0.00    +0.007 A 
ATOM     29  C   UNL     1      35.568   8.152 -24.696  0.00  0.00    +0.007 A 
ATOM     30  C   UNL     1      34.295   8.027 -27.160  0.00  0.00    +0.023 A 
ATOM     31  C   UNL     1      36.317   8.135 -25.881  0.00  0.00    +0.023 A 
ATOM     32  C   UNL     1      35.690   8.117 -27.143  0.00  0.00    +0.030 A 
BRANCH  32  33
ATOM     33  N   UNL     1      36.408   8.242 -28.312  0.00  0.00    -0.333 N 
ATOM     34  C   UNL     1      37.801   7.811 -28.381  0.00  0.00    +0.086 C 
ATOM     35  C   UNL     1      35.777   8.565 -29.601  0.00  0.00    +0.086 C 
ATOM     36  C   UNL     1      38.628   8.851 -29.166  0.00  0.00    -0.060 C 
ATOM     37  C   UNL     1      36.670   9.563 -30.373  0.00  0.00    -0.060 C 
ATOM     38  N   UNL     1      38.062   9.070 -30.522  0.00  0.00    +0.380 N 
ATOM     39  C   UNL     1      38.878  10.003 -31.284  0.00  0.00    -0.096 C 
ATOM     40  H   UNL     1      38.058   8.192 -31.040  0.00  0.00    -0.082 HD
ENDBRANCH  32  33
ENDBRANCH  26  27
ENDBRANCH  24  26
ENDBRANCH   1  23
TORSDOF 5
ENDMDL
MODEL 4
REMARK VINA RESULT:   -11.262      3.395     13.827
REMARK INTER + INTRA:         -14.574
REMARK INTER:                 -13.920
REMARK INTRA:                  -0.654
REMARK UNBOUND:                -0.679
REMARK  Name = CTX-1019660
REMARK  6 active torsions:
REMARK  status: ('A' for Active; 'I' for Inactive)
REMARK    1  A    between atoms: C_2  and  C_4
REMARK    2  A    between atoms: N_3  and  C_5
REMARK    3  A    between atoms: C_5  and  C_8
REMARK    4  A    between atoms: C_19  and  N_22
REMARK    5  A    between atoms: C_21  and  C_24
REMARK    6  A    between atoms: N_34  and  C_37
REMARK                            x       y       z     vdW  Elec       q    Type
REMARK                         _______ _______ _______ _____ _____    ______ ____
ROOT
ATOM      1  C   UNL     1      26.838   3.843 -16.409  0.00  0.00    +0.126 A 
ATOM      2  N   UNL     1      27.743   3.482 -17.400  0.00  0.00    -0.245 NA
ATOM      3  C   UNL     1      26.901   5.031 -15.704  0.00  0.00    +0.033 A 
ATOM      4  C   UNL     1      28.735   4.411 -17.768  0.00  0.00    +0.063 A 
ATOM      5  C   UNL     1      27.969   5.892 -16.001  0.00  0.00    +0.008 A 
ATOM      6  C   UNL     1      28.911   5.586 -17.030  0.00  0.00    -0.023 A 
ATOM      7  C   UNL     1      29.699   4.168 -19.052  0.00  0.00    +0.163 C 
ATOM      8  C   UNL     1      30.017   6.565 -17.388  0.00  0.00    +0.056 C 
ATOM      9  N   UNL     1      30.476   5.487 -19.718  0.00  0.00    -0.291 N 
ATOM     10  C   UNL     1      31.114   6.086 -18.443  0.00  0.00    +0.113 C 
ATOM     11  C   UNL     1      30.508   5.792 -21.426  0.00  0.00    +0.251 C 
ATOM     12  O   UNL     1      29.805   4.929 -21.993  0.00  0.00    -0.270 OA
ENDROOT
BRANCH  11  13
ATOM     13  C   UNL     1      31.506   6.789 -22.602  0.00  0.00    +0.083 A 
ATOM     14  C   UNL     1      32.169   7.322 -24.153  0.00  0.00    +0.097 A 
ATOM     15  C   UNL     1      32.778   6.551 -22.156  0.00  0.00    +0.148 A 
ATOM     16  N   UNL     1      33.272   7.968 -23.560  0.00  0.00    -0.236 N 
ATOM     17  C   UNL     1      32.540   7.662 -25.914  0.00  0.00    +0.139 A 
ATOM     18  N   UNL     1      33.408   7.693 -22.241  0.00  0.00    -0.174 NA
ATOM     19  C   UNL     1      34.307   8.561 -24.253  0.00  0.00    +0.132 A 
ATOM     20  N   UNL     1      33.889   8.057 -26.494  0.00  0.00    -0.260 NA
ATOM     21  C   UNL     1      34.790   8.146 -25.435  0.00  0.00    +0.130 A 
ENDBRANCH  11  13
BRANCH   1  23
ATOM     22  O   UNL     1      25.676   2.060 -15.336  0.00  0.00    -0.269 OA
ATOM     23  C   UNL     1      25.598   2.962 -16.091  0.00  0.00    +0.263 C 
ATOM     24  N   UNL     1      24.395   3.308 -16.761  0.00  0.00    -0.306 N 
ATOM     25  H   UNL     1      24.379   4.090 -17.360  0.00  0.00    +0.149 HD
BRANCH  24  26
ATOM     26  C   UNL     1      23.173   2.515 -16.574  0.00  0.00    +0.140 C 
BRANCH  26  27
ATOM     27  C   UNL     1      22.943   1.481 -17.669  0.00  0.00    -0.030 A 
ATOM     28  C   UNL     1      21.685   0.902 -17.845  0.00  0.00    +0.007 A 
ATOM     29  C   UNL     1      23.986   1.050 -18.501  0.00  0.00    +0.007 A 
ATOM     30  C   UNL     1      21.472  -0.087 -18.812  0.00  0.00    +0.023 A 
ATOM     31  C   UNL     1      23.796  -0.016 -19.390  0.00  0.00    +0.023 A 
ATOM     32  C   UNL     1      22.520  -0.579 -19.597  0.00  0.00    +0.030 A 
BRANCH  32  33
ATOM     33  N   UNL     1      22.295  -1.530 -20.567  0.00  0.00    -0.333 N 
ATOM     34  C   UNL     1      20.936  -1.935 -20.913  0.00  0.00    +0.086 C 
ATOM     35  C   UNL     1      23.351  -2.003 -21.476  0.00  0.00    +0.086 C 
ATOM     36  C   UNL     1      20.880  -3.468 -21.089  0.00  0.00    -0.060 C 
ATOM     37  C   UNL     1      23.218  -3.531 -21.666  0.00  0.00    -0.060 C 
ATOM     38  N   UNL     1      21.857  -3.923 -22.112  0.00  0.00    +0.380 N 
ATOM     39  C   UNL     1      21.760  -5.360 -22.324  0.00  0.00    -0.096 C 
ATOM     40  H   UNL     1      21.652  -3.480 -23.007  0.00  0.00    -0.082 HD
ENDBRANCH  32  33
ENDBRANCH  26  27
ENDBRANCH  24  26
ENDBRANCH   1  23
TORSDOF 5
ENDMDL
MODEL 5
REMARK VINA RESULT:   -11.080      2.951     14.586
REMARK INTER + INTRA:         -14.350
REMARK INTER:                 -13.645
REMARK INTRA:                  -0.705
REMARK UNBOUND:                -0.679
REMARK  Name = CTX-1019660
REMARK  6 active torsions:
REMARK  status: ('A' for Active; 'I' for Inactive)
REMARK    1  A    between atoms: C_2  and  C_4
REMARK    2  A    between atoms: N_3  and  C_5
REMARK    3  A    between atoms: C_5  and  C_8
REMARK    4  A    between atoms: C_19  and  N_22
REMARK    5  A    between atoms: C_21  and  C_24
REMARK    6  A    between atoms: N_34  and  C_37
REMARK                            x       y       z     vdW  Elec       q    Type
REMARK                         _______ _______ _______ _____ _____    ______ ____
ROOT
ATOM      1  C   UNL     1      24.169   0.315 -23.644  0.00  0.00    +0.126 A 
ATOM      2  N   UNL     1      24.658   1.359 -22.868  0.00  0.00    -0.245 NA
ATOM      3  C   UNL     1      24.369   0.210 -25.008  0.00  0.00    +0.033 A 
ATOM      4  C   UNL     1      25.473   2.326 -23.487  0.00  0.00    +0.063 A 
ATOM      5  C   UNL     1      25.083   1.249 -25.629  0.00  0.00    +0.008 A 
ATOM      6  C   UNL     1      25.633   2.331 -24.877  0.00  0.00    -0.023 A 
ATOM      7  C   UNL     1      26.259   3.458 -22.628  0.00  0.00    +0.163 C 
ATOM      8  C   UNL     1      26.465   3.406 -25.555  0.00  0.00    +0.056 C 
ATOM      9  N   UNL     1      27.563   4.224 -23.335  0.00  0.00    -0.291 N 
ATOM     10  C   UNL     1      26.918   4.656 -24.673  0.00  0.00    +0.113 C 
ATOM     11  C   UNL     1      29.075   4.450 -22.514  0.00  0.00    +0.251 C 
ATOM     12  O   UNL     1      29.009   3.882 -21.404  0.00  0.00    -0.270 OA
ENDROOT
BRANCH  11  13
ATOM     13  C   UNL     1      30.558   5.521 -22.686  0.00  0.00    +0.083 A 
ATOM     14  C   UNL     1      31.872   6.598 -22.193  0.00  0.00    +0.097 A 
ATOM     15  C   UNL     1      30.103   6.489 -23.540  0.00  0.00    +0.148 A 
ATOM     16  N   UNL     1      32.063   7.103 -23.494  0.00  0.00    -0.236 N 
ATOM     17  C   UNL     1      33.146   7.571 -21.308  0.00  0.00    +0.139 A 
ATOM     18  N   UNL     1      31.089   6.736 -24.360  0.00  0.00    -0.174 NA
ATOM     19  C   UNL     1      32.939   8.116 -23.828  0.00  0.00    +0.132 A 
ATOM     20  N   UNL     1      33.794   8.861 -21.786  0.00  0.00    -0.260 NA
ATOM     21  C   UNL     1      33.263   9.154 -23.041  0.00  0.00    +0.130 A 
ENDBRANCH  11  13
BRANCH   1  23
ATOM     22  O   UNL     1      22.618  -1.494 -23.598  0.00  0.00    -0.269 OA
ATOM     23  C   UNL     1      23.438  -0.895 -22.999  0.00  0.00    +0.263 C 
ATOM     24  N   UNL     1      23.812  -1.217 -21.668  0.00  0.00    -0.306 N 
ATOM     25  H   UNL     1      24.524  -0.700 -21.224  0.00  0.00    +0.149 HD
BRANCH  24  26
ATOM     26  C   UNL     1      23.152  -2.311 -20.943  0.00  0.00    +0.140 C 
BRANCH  26  27
ATOM     27  C   UNL     1      22.127  -1.833 -19.921  0.00  0.00    -0.030 A 
ATOM     28  C   UNL     1      22.042  -0.483 -19.580  0.00  0.00    +0.007 A 
ATOM     29  C   UNL     1      21.273  -2.731 -19.265  0.00  0.00    +0.007 A 
ATOM     30  C   UNL     1      21.142  -0.038 -18.604  0.00  0.00    +0.023 A 
ATOM     31  C   UNL     1      20.454  -2.299 -18.213  0.00  0.00    +0.023 A 
ATOM     32  C   UNL     1      20.339  -0.931 -17.890  0.00  0.00    +0.030 A 
BRANCH  32  33
ATOM     33  N   UNL     1      19.434  -0.481 -16.954  0.00  0.00    -0.333 N 
ATOM     34  C   UNL     1      18.284   0.322 -17.355  0.00  0.00    +0.086 C 
ATOM     35  C   UNL     1      19.416  -0.972 -15.567  0.00  0.00    +0.086 C 
ATOM     36  C   UNL     1      18.083   1.479 -16.352  0.00  0.00    -0.060 C 
ATOM     37  C   UNL     1      19.154   0.211 -14.608  0.00  0.00    -0.060 C 
ATOM     38  N   UNL     1      17.926   0.964 -14.969  0.00  0.00    +0.380 N 
ATOM     39  C   UNL     1      17.673   2.049 -14.032  0.00  0.00    -0.096 C 
ATOM     40  H   UNL     1      17.120   0.341 -14.921  0.00  0.00    -0.082 HD
ENDBRANCH  32  33
ENDBRANCH  26  27
ENDBRANCH  24  26
ENDBRANCH   1  23
TORSDOF 5
ENDMDL
