MODEL 1
REMARK VINA RESULT:   -12.354      0.000      0.000
REMARK INTER + INTRA:         -16.433
REMARK INTER:                 -15.965
REMARK INTRA:                  -0.468
REMARK UNBOUND:                -0.468
REMARK  Name = CTX-1019613
REMARK  7 active torsions:
REMARK  status: ('A' for Active; 'I' for Inactive)
REMARK    1  A    between atoms: C_2  and  C_5
REMARK    2  A    between atoms: C_4  and  C_8
REMARK    3  A    between atoms: C_20  and  C_22
REMARK    4  A    between atoms: N_25  and  C_26
REMARK    5  A    between atoms: C_26  and  C_27
REMARK    6  A    between atoms: C_32  and  N_33
REMARK    7  A    between atoms: N_38  and  C_39
REMARK                            x       y       z     vdW  Elec       q    Type
REMARK                         _______ _______ _______ _____ _____    ______ ____
ROOT
ATOM      1  C   UNL     1      19.683  -0.694 -16.730  0.00  0.00    +0.254 C 
ATOM      2  O   UNL     1      19.063  -1.680 -16.283  0.00  0.00    -0.269 OA
ATOM      3  N   UNL     1      20.345  -0.988 -17.992  0.00  0.00    -0.291 N 
ATOM      4  C   UNL     1      21.133  -0.143 -18.950  0.00  0.00    +0.163 C 
ATOM      5  C   UNL     1      20.251  -2.430 -18.264  0.00  0.00    +0.113 C 
ATOM      6  C   UNL     1      21.717  -0.809 -20.250  0.00  0.00    +0.063 A 
ATOM      7  C   UNL     1      20.750  -3.045 -19.549  0.00  0.00    +0.056 C 
ATOM      8  N   UNL     1      22.422  -0.053 -21.182  0.00  0.00    -0.245 NA
ATOM      9  C   UNL     1      21.521  -2.174 -20.461  0.00  0.00    -0.023 A 
ATOM     10  C   UNL     1      22.891  -0.709 -22.313  0.00  0.00    +0.126 A 
ATOM     11  C   UNL     1      22.027  -2.796 -21.609  0.00  0.00    +0.008 A 
ATOM     12  C   UNL     1      22.712  -2.065 -22.547  0.00  0.00    +0.033 A 
ENDROOT
BRANCH   1  14
ATOM     13  S   UNL     1      21.139   1.462 -16.006  0.00  0.00    -0.083 S 
ATOM     14  C   UNL     1      19.628   0.534 -15.867  0.00  0.00    +0.078 A 
ATOM     15  C   UNL     1      20.687   2.716 -14.962  0.00  0.00    +0.020 A 
ATOM     16  C   UNL     1      18.800   1.233 -14.980  0.00  0.00    -0.024 A 
ATOM     17  C   UNL     1      19.412   2.497 -14.464  0.00  0.00    -0.007 A 
ATOM     18  C   UNL     1      21.461   3.849 -14.612  0.00  0.00    +0.015 A 
ATOM     19  C   UNL     1      17.438   0.868 -14.511  0.00  0.00    +0.046 C 
ATOM     20  C   UNL     1      18.911   3.483 -13.567  0.00  0.00    +0.009 A 
ATOM     21  C   UNL     1      20.939   4.797 -13.732  0.00  0.00    +0.001 A 
ATOM     22  C   UNL     1      19.670   4.616 -13.210  0.00  0.00    +0.001 A 
ENDBRANCH   1  14
BRANCH  10  23
ATOM     23  C   UNL     1      23.650  -0.017 -23.436  0.00  0.00    +0.263 C 
ATOM     24  O   UNL     1      23.302  -0.189 -24.601  0.00  0.00    -0.269 OA
ATOM     25  N   UNL     1      24.738   0.768 -23.136  0.00  0.00    -0.306 N 
ATOM     26  H   UNL     1      24.965   0.960 -22.197  0.00  0.00    +0.149 HD
BRANCH  25  27
ATOM     27  C   UNL     1      25.555   1.314 -24.213  0.00  0.00    +0.140 C 
BRANCH  27  28
ATOM     28  C   UNL     1      26.480   2.385 -23.713  0.00  0.00    -0.030 A 
ATOM     29  C   UNL     1      26.552   3.639 -24.319  0.00  0.00    +0.007 A 
ATOM     30  C   UNL     1      27.311   2.126 -22.624  0.00  0.00    +0.007 A 
ATOM     31  C   UNL     1      27.523   4.565 -23.913  0.00  0.00    +0.023 A 
ATOM     32  C   UNL     1      28.263   3.066 -22.217  0.00  0.00    +0.023 A 
ATOM     33  C   UNL     1      28.433   4.291 -22.879  0.00  0.00    +0.030 A 
BRANCH  33  34
ATOM     34  N   UNL     1      29.493   5.139 -22.602  0.00  0.00    -0.333 N 
ATOM     35  C   UNL     1      29.625   6.456 -23.254  0.00  0.00    +0.086 C 
ATOM     36  C   UNL     1      30.234   5.051 -21.330  0.00  0.00    +0.086 C 
ATOM     37  C   UNL     1      31.122   6.812 -23.431  0.00  0.00    -0.060 C 
ATOM     38  C   UNL     1      31.716   5.432 -21.553  0.00  0.00    -0.060 C 
ATOM     39  N   UNL     1      31.871   6.774 -22.153  0.00  0.00    +0.380 N 
ATOM     40  C   UNL     1      33.281   7.081 -22.365  0.00  0.00    -0.096 C 
ATOM     41  H   UNL     1      31.495   7.481 -21.521  0.00  0.00    -0.082 HD
ENDBRANCH  33  34
ENDBRANCH  27  28
ENDBRANCH  25  27
ENDBRANCH  10  23
TORSDOF 5
ENDMDL
MODEL 2
REMARK VINA RESULT:   -12.028      3.342      6.941
REMARK INTER + INTRA:         -16.011
REMARK INTER:                 -15.306
REMARK INTRA:                  -0.705
REMARK UNBOUND:                -0.468
REMARK  Name = CTX-1019613
REMARK  7 active torsions:
REMARK  status: ('A' for Active; 'I' for Inactive)
REMARK    1  A    between atoms: C_2  and  C_5
REMARK    2  A    between atoms: C_4  and  C_8
REMARK    3  A    between atoms: C_20  and  C_22
REMARK    4  A    between atoms: N_25  and  C_26
REMARK    5  A    between atoms: C_26  and  C_27
REMARK    6  A    between atoms: C_32  and  N_33
REMARK    7  A    between atoms: N_38  and  C_39
REMARK                            x       y       z     vdW  Elec       q    Type
REMARK                         _______ _______ _______ _____ _____    ______ ____
ROOT
ATOM      1  C   UNL     1      21.134  -0.571 -18.641  0.00  0.00    +0.254 C 
ATOM      2  O   UNL     1      19.963  -0.341 -18.280  0.00  0.00    -0.269 OA
ATOM      3  N   UNL     1      22.066   0.437 -18.157  0.00  0.00    -0.291 N 
ATOM      4  C   UNL     1      23.557   0.574 -18.249  0.00  0.00    +0.163 C 
ATOM      5  C   UNL     1      21.310   1.544 -17.552  0.00  0.00    +0.113 C 
ATOM      6  C   UNL     1      24.249   1.826 -17.596  0.00  0.00    +0.063 A 
ATOM      7  C   UNL     1      21.986   2.703 -16.862  0.00  0.00    +0.056 C 
ATOM      8  N   UNL     1      25.633   1.972 -17.626  0.00  0.00    -0.245 NA
ATOM      9  C   UNL     1      23.457   2.796 -16.980  0.00  0.00    -0.023 A 
ATOM     10  C   UNL     1      26.170   3.096 -17.011  0.00  0.00    +0.126 A 
ATOM     11  C   UNL     1      24.043   3.922 -16.388  0.00  0.00    +0.008 A 
ATOM     12  C   UNL     1      25.406   4.076 -16.395  0.00  0.00    +0.033 A 
ENDROOT
BRANCH   1  14
ATOM     13  S   UNL     1      21.015  -3.267 -18.543  0.00  0.00    -0.083 S 
ATOM     14  C   UNL     1      21.306  -1.794 -19.496  0.00  0.00    +0.078 A 
ATOM     15  C   UNL     1      21.263  -4.363 -19.809  0.00  0.00    +0.020 A 
ATOM     16  C   UNL     1      21.611  -2.205 -20.800  0.00  0.00    -0.024 A 
ATOM     17  C   UNL     1      21.579  -3.690 -20.980  0.00  0.00    -0.007 A 
ATOM     18  C   UNL     1      21.176  -5.774 -19.739  0.00  0.00    +0.015 A 
ATOM     19  C   UNL     1      21.953  -1.362 -21.974  0.00  0.00    +0.046 C 
ATOM     20  C   UNL     1      21.815  -4.501 -22.126  0.00  0.00    +0.009 A 
ATOM     21  C   UNL     1      21.411  -6.539 -20.882  0.00  0.00    +0.001 A 
ATOM     22  C   UNL     1      21.731  -5.907 -22.071  0.00  0.00    +0.001 A 
ENDBRANCH   1  14
BRANCH  10  23
ATOM     23  C   UNL     1      27.663   3.382 -16.932  0.00  0.00    +0.263 C 
ATOM     24  O   UNL     1      28.153   3.769 -15.875  0.00  0.00    -0.269 OA
ATOM     25  N   UNL     1      28.442   3.235 -18.056  0.00  0.00    -0.306 N 
ATOM     26  H   UNL     1      28.056   2.854 -18.878  0.00  0.00    +0.149 HD
BRANCH  25  27
ATOM     27  C   UNL     1      29.841   3.645 -18.026  0.00  0.00    +0.140 C 
BRANCH  27  28
ATOM     28  C   UNL     1      30.186   4.510 -19.203  0.00  0.00    -0.030 A 
ATOM     29  C   UNL     1      30.172   4.018 -20.507  0.00  0.00    +0.007 A 
ATOM     30  C   UNL     1      30.553   5.840 -18.999  0.00  0.00    +0.007 A 
ATOM     31  C   UNL     1      30.632   4.813 -21.566  0.00  0.00    +0.023 A 
ATOM     32  C   UNL     1      30.992   6.628 -20.067  0.00  0.00    +0.023 A 
ATOM     33  C   UNL     1      31.094   6.125 -21.373  0.00  0.00    +0.030 A 
BRANCH  33  34
ATOM     34  N   UNL     1      31.703   6.838 -22.393  0.00  0.00    -0.333 N 
ATOM     35  C   UNL     1      30.919   7.584 -23.395  0.00  0.00    +0.086 C 
ATOM     36  C   UNL     1      33.088   7.329 -22.265  0.00  0.00    +0.086 C 
ATOM     37  C   UNL     1      31.662   7.584 -24.755  0.00  0.00    -0.060 C 
ATOM     38  C   UNL     1      33.780   7.330 -23.646  0.00  0.00    -0.060 C 
ATOM     39  N   UNL     1      33.038   8.120 -24.651  0.00  0.00    +0.380 N 
ATOM     40  C   UNL     1      33.716   8.073 -25.942  0.00  0.00    -0.096 C 
ATOM     41  H   UNL     1      32.998   9.098 -24.361  0.00  0.00    -0.082 HD
ENDBRANCH  33  34
ENDBRANCH  27  28
ENDBRANCH  25  27
ENDBRANCH  10  23
TORSDOF 5
ENDMDL
MODEL 3
REMARK VINA RESULT:   -11.872      7.531     12.056
REMARK INTER + INTRA:         -15.810
REMARK INTER:                 -15.060
REMARK INTRA:                  -0.750
REMARK UNBOUND:                -0.468
REMARK  Name = CTX-1019613
REMARK  7 active torsions:
REMARK  status: ('A' for Active; 'I' for Inactive)
REMARK    1  A    between atoms: C_2  and  C_5
REMARK    2  A    between atoms: C_4  and  C_8
REMARK    3  A    between atoms: C_20  and  C_22
REMARK    4  A    between atoms: N_25  and  C_26
REMARK    5  A    between atoms: C_26  and  C_27
REMARK    6  A    between atoms: C_32  and  N_33
REMARK    7  A    between atoms: N_38  and  C_39
REMARK                            x       y       z     vdW  Elec       q    Type
REMARK                         _______ _______ _______ _____ _____    ______ ____
ROOT
ATOM      1  C   UNL     1      26.819   2.336 -24.595  0.00  0.00    +0.254 C 
ATOM      2  O   UNL     1      26.170   1.502 -23.932  0.00  0.00    -0.269 OA
ATOM      3  N   UNL     1      27.786   3.055 -23.779  0.00  0.00    -0.291 N 
ATOM      4  C   UNL     1      28.834   4.078 -24.105  0.00  0.00    +0.163 C 
ATOM      5  C   UNL     1      27.565   2.724 -22.363  0.00  0.00    +0.113 C 
ATOM      6  C   UNL     1      29.722   4.657 -22.943  0.00  0.00    +0.063 A 
ATOM      7  C   UNL     1      28.470   3.227 -21.265  0.00  0.00    +0.056 C 
ATOM      8  N   UNL     1      30.729   5.579 -23.208  0.00  0.00    -0.245 NA
ATOM      9  C   UNL     1      29.488   4.233 -21.634  0.00  0.00    -0.023 A 
ATOM     10  C   UNL     1      31.482   6.029 -22.131  0.00  0.00    +0.126 A 
ATOM     11  C   UNL     1      30.262   4.728 -20.577  0.00  0.00    +0.008 A 
ATOM     12  C   UNL     1      31.269   5.627 -20.821  0.00  0.00    +0.033 A 
ENDROOT
BRANCH   1  14
ATOM     13  S   UNL     1      25.669   3.986 -26.398  0.00  0.00    -0.083 S 
ATOM     14  C   UNL     1      26.442   2.422 -26.047  0.00  0.00    +0.078 A 
ATOM     15  C   UNL     1      25.436   3.713 -28.052  0.00  0.00    +0.020 A 
ATOM     16  C   UNL     1      26.485   1.709 -27.251  0.00  0.00    -0.024 A 
ATOM     17  C   UNL     1      25.909   2.460 -28.410  0.00  0.00    -0.007 A 
ATOM     18  C   UNL     1      24.847   4.602 -28.984  0.00  0.00    +0.015 A 
ATOM     19  C   UNL     1      27.014   0.342 -27.492  0.00  0.00    +0.046 C 
ATOM     20  C   UNL     1      25.770   2.105 -29.782  0.00  0.00    +0.009 A 
ATOM     21  C   UNL     1      24.729   4.223 -30.321  0.00  0.00    +0.001 A 
ATOM     22  C   UNL     1      25.187   2.980 -30.720  0.00  0.00    +0.001 A 
ENDBRANCH   1  14
BRANCH  10  23
ATOM     23  C   UNL     1      32.637   7.013 -22.262  0.00  0.00    +0.263 C 
ATOM     24  O   UNL     1      33.084   7.562 -21.259  0.00  0.00    -0.269 OA
ATOM     25  N   UNL     1      33.144   7.301 -23.506  0.00  0.00    -0.306 N 
ATOM     26  H   UNL     1      32.831   6.803 -24.296  0.00  0.00    +0.149 HD
BRANCH  25  27
ATOM     27  C   UNL     1      34.150   8.348 -23.653  0.00  0.00    +0.140 C 
BRANCH  27  28
ATOM     28  C   UNL     1      34.829   8.274 -24.989  0.00  0.00    -0.030 A 
ATOM     29  C   UNL     1      36.211   8.404 -25.120  0.00  0.00    +0.007 A 
ATOM     30  C   UNL     1      34.067   8.091 -26.142  0.00  0.00    +0.007 A 
ATOM     31  C   UNL     1      36.797   8.468 -26.392  0.00  0.00    +0.023 A 
ATOM     32  C   UNL     1      34.667   8.138 -27.405  0.00  0.00    +0.023 A 
ATOM     33  C   UNL     1      36.039   8.379 -27.572  0.00  0.00    +0.030 A 
BRANCH  33  34
ATOM     34  N   UNL     1      36.601   8.614 -28.816  0.00  0.00    -0.333 N 
ATOM     35  C   UNL     1      37.952   8.129 -29.161  0.00  0.00    +0.086 C 
ATOM     36  C   UNL     1      35.762   8.872 -30.001  0.00  0.00    +0.086 C 
ATOM     37  C   UNL     1      38.630   9.113 -30.148  0.00  0.00    -0.060 C 
ATOM     38  C   UNL     1      36.488   9.841 -30.962  0.00  0.00    -0.060 C 
ATOM     39  N   UNL     1      37.821   9.346 -31.366  0.00  0.00    +0.380 N 
ATOM     40  C   UNL     1      38.475  10.302 -32.253  0.00  0.00    -0.096 C 
ATOM     41  H   UNL     1      37.723   8.469 -31.878  0.00  0.00    -0.082 HD
ENDBRANCH  33  34
ENDBRANCH  27  28
ENDBRANCH  25  27
ENDBRANCH  10  23
TORSDOF 5
ENDMDL
MODEL 4
REMARK VINA RESULT:   -11.643      3.804      7.583
REMARK INTER + INTRA:         -15.513
REMARK INTER:                 -14.746
REMARK INTRA:                  -0.768
REMARK UNBOUND:                -0.468
REMARK  Name = CTX-1019613
REMARK  7 active torsions:
REMARK  status: ('A' for Active; 'I' for Inactive)
REMARK    1  A    between atoms: C_2  and  C_5
REMARK    2  A    between atoms: C_4  and  C_8
REMARK    3  A    between atoms: C_20  and  C_22
REMARK    4  A    between atoms: N_25  and  C_26
REMARK    5  A    between atoms: C_26  and  C_27
REMARK    6  A    between atoms: C_32  and  N_33
REMARK    7  A    between atoms: N_38  and  C_39
REMARK                            x       y       z     vdW  Elec       q    Type
REMARK                         _______ _______ _______ _____ _____    ______ ____
ROOT
ATOM      1  C   UNL     1      22.740   0.413 -18.248  0.00  0.00    +0.254 C 
ATOM      2  O   UNL     1      21.683   0.574 -17.605  0.00  0.00    -0.269 OA
ATOM      3  N   UNL     1      23.774   1.357 -17.851  0.00  0.00    -0.291 N 
ATOM      4  C   UNL     1      25.209   1.525 -18.256  0.00  0.00    +0.163 C 
ATOM      5  C   UNL     1      23.193   2.359 -16.945  0.00  0.00    +0.113 C 
ATOM      6  C   UNL     1      26.052   2.684 -17.608  0.00  0.00    +0.063 A 
ATOM      7  C   UNL     1      24.027   3.421 -16.272  0.00  0.00    +0.056 C 
ATOM      8  N   UNL     1      27.396   2.852 -17.928  0.00  0.00    -0.245 NA
ATOM      9  C   UNL     1      25.435   3.549 -16.703  0.00  0.00    -0.023 A 
ATOM     10  C   UNL     1      28.078   3.887 -17.300  0.00  0.00    +0.126 A 
ATOM     11  C   UNL     1      26.159   4.590 -16.108  0.00  0.00    +0.008 A 
ATOM     12  C   UNL     1      27.489   4.762 -16.399  0.00  0.00    +0.033 A 
ENDROOT
BRANCH   1  14
ATOM     13  S   UNL     1      21.350  -1.795 -18.946  0.00  0.00    -0.083 S 
ATOM     14  C   UNL     1      22.693  -0.677 -19.280  0.00  0.00    +0.078 A 
ATOM     15  C   UNL     1      21.609  -2.806 -20.279  0.00  0.00    +0.020 A 
ATOM     16  C   UNL     1      23.330  -1.141 -20.438  0.00  0.00    -0.024 A 
ATOM     17  C   UNL     1      22.698  -2.367 -21.017  0.00  0.00    -0.007 A 
ATOM     18  C   UNL     1      20.854  -3.949 -20.637  0.00  0.00    +0.015 A 
ATOM     19  C   UNL     1      24.521  -0.573 -21.123  0.00  0.00    +0.046 C 
ATOM     20  C   UNL     1      23.025  -3.135 -22.170  0.00  0.00    +0.009 A 
ATOM     21  C   UNL     1      21.201  -4.678 -21.774  0.00  0.00    +0.001 A 
ATOM     22  C   UNL     1      22.282  -4.275 -22.539  0.00  0.00    +0.001 A 
ENDBRANCH   1  14
BRANCH  10  23
ATOM     23  C   UNL     1      29.556   4.179 -17.520  0.00  0.00    +0.263 C 
ATOM     24  O   UNL     1      30.400   3.394 -17.098  0.00  0.00    -0.269 OA
ATOM     25  N   UNL     1      29.930   5.337 -18.160  0.00  0.00    -0.306 N 
ATOM     26  H   UNL     1      29.247   5.924 -18.559  0.00  0.00    +0.149 HD
BRANCH  25  27
ATOM     27  C   UNL     1      31.341   5.693 -18.244  0.00  0.00    +0.140 C 
BRANCH  27  28
ATOM     28  C   UNL     1      31.660   6.374 -19.543  0.00  0.00    -0.030 A 
ATOM     29  C   UNL     1      30.691   6.580 -20.524  0.00  0.00    +0.007 A 
ATOM     30  C   UNL     1      32.963   6.800 -19.798  0.00  0.00    +0.007 A 
ATOM     31  C   UNL     1      31.053   7.093 -21.777  0.00  0.00    +0.023 A 
ATOM     32  C   UNL     1      33.307   7.328 -21.046  0.00  0.00    +0.023 A 
ATOM     33  C   UNL     1      32.377   7.443 -22.090  0.00  0.00    +0.030 A 
BRANCH  33  34
ATOM     34  N   UNL     1      32.751   7.786 -23.379  0.00  0.00    -0.333 N 
ATOM     35  C   UNL     1      31.771   7.861 -24.479  0.00  0.00    +0.086 C 
ATOM     36  C   UNL     1      33.969   8.577 -23.639  0.00  0.00    +0.086 C 
ATOM     37  C   UNL     1      32.445   7.464 -25.816  0.00  0.00    -0.060 C 
ATOM     38  C   UNL     1      34.593   8.158 -24.990  0.00  0.00    -0.060 C 
ATOM     39  N   UNL     1      33.643   8.282 -26.115  0.00  0.00    +0.380 N 
ATOM     40  C   UNL     1      34.268   7.855 -27.362  0.00  0.00    -0.096 C 
ATOM     41  H   UNL     1      33.365   9.257 -26.228  0.00  0.00    -0.082 HD
ENDBRANCH  33  34
ENDBRANCH  27  28
ENDBRANCH  25  27
ENDBRANCH  10  23
TORSDOF 5
ENDMDL
MODEL 5
REMARK VINA RESULT:   -10.750      4.234     11.709
REMARK INTER + INTRA:         -14.360
REMARK INTER:                 -13.690
REMARK INTRA:                  -0.669
REMARK UNBOUND:                -0.468
REMARK  Name = CTX-1019613
REMARK  7 active torsions:
REMARK  status: ('A' for Active; 'I' for Inactive)
REMARK    1  A    between atoms: C_2  and  C_5
REMARK    2  A    between atoms: C_4  and  C_8
REMARK    3  A    between atoms: C_20  and  C_22
REMARK    4  A    between atoms: N_25  and  C_26
REMARK    5  A    between atoms: C_26  and  C_27
REMARK    6  A    between atoms: C_32  and  N_33
REMARK    7  A    between atoms: N_38  and  C_39
REMARK                            x       y       z     vdW  Elec       q    Type
REMARK                         _______ _______ _______ _____ _____    ______ ____
ROOT
ATOM      1  C   UNL     1      30.126   4.650 -18.197  0.00  0.00    +0.254 C 
ATOM      2  O   UNL     1      31.152   4.678 -17.488  0.00  0.00    -0.269 OA
ATOM      3  N   UNL     1      28.983   4.097 -17.487  0.00  0.00    -0.291 N 
ATOM      4  C   UNL     1      27.540   3.922 -17.859  0.00  0.00    +0.163 C 
ATOM      5  C   UNL     1      29.433   3.544 -16.201  0.00  0.00    +0.113 C 
ATOM      6  C   UNL     1      26.558   3.268 -16.818  0.00  0.00    +0.063 A 
ATOM      7  C   UNL     1      28.472   2.986 -15.179  0.00  0.00    +0.056 C 
ATOM      8  N   UNL     1      25.205   3.121 -17.109  0.00  0.00    -0.245 NA
ATOM      9  C   UNL     1      27.061   2.833 -15.591  0.00  0.00    -0.023 A 
ATOM     10  C   UNL     1      24.400   2.552 -16.131  0.00  0.00    +0.126 A 
ATOM     11  C   UNL     1      26.213   2.248 -14.642  0.00  0.00    +0.008 A 
ATOM     12  C   UNL     1      24.874   2.109 -14.905  0.00  0.00    +0.033 A 
ENDROOT
BRANCH   1  14
ATOM     13  S   UNL     1      31.044   6.778 -19.583  0.00  0.00    -0.083 S 
ATOM     14  C   UNL     1      30.310   5.158 -19.598  0.00  0.00    +0.078 A 
ATOM     15  C   UNL     1      31.109   6.972 -21.263  0.00  0.00    +0.020 A 
ATOM     16  C   UNL     1      30.117   4.811 -20.942  0.00  0.00    -0.024 A 
ATOM     17  C   UNL     1      30.586   5.858 -21.902  0.00  0.00    -0.007 A 
ATOM     18  C   UNL     1      31.613   8.091 -21.969  0.00  0.00    +0.015 A 
ATOM     19  C   UNL     1      29.517   3.569 -21.493  0.00  0.00    +0.046 C 
ATOM     20  C   UNL     1      30.579   5.896 -23.325  0.00  0.00    +0.009 A 
ATOM     21  C   UNL     1      31.594   8.093 -23.364  0.00  0.00    +0.001 A 
ATOM     22  C   UNL     1      31.079   7.002 -24.041  0.00  0.00    +0.001 A 
ENDBRANCH   1  14
BRANCH  10  23
ATOM     23  C   UNL     1      22.898   2.353 -16.285  0.00  0.00    +0.263 C 
ATOM     24  O   UNL     1      22.304   1.598 -15.521  0.00  0.00    -0.269 OA
ATOM     25  N   UNL     1      22.230   2.995 -17.300  0.00  0.00    -0.306 N 
ATOM     26  H   UNL     1      22.700   3.655 -17.861  0.00  0.00    +0.149 HD
BRANCH  25  27
ATOM     27  C   UNL     1      20.824   2.697 -17.543  0.00  0.00    +0.140 C 
BRANCH  27  28
ATOM     28  C   UNL     1      20.652   1.365 -18.213  0.00  0.00    -0.030 A 
ATOM     29  C   UNL     1      19.636   0.483 -17.848  0.00  0.00    +0.007 A 
ATOM     30  C   UNL     1      21.538   0.977 -19.217  0.00  0.00    +0.007 A 
ATOM     31  C   UNL     1      19.589  -0.806 -18.398  0.00  0.00    +0.023 A 
ATOM     32  C   UNL     1      21.469  -0.305 -19.770  0.00  0.00    +0.023 A 
ATOM     33  C   UNL     1      20.527  -1.253 -19.343  0.00  0.00    +0.030 A 
BRANCH  33  34
ATOM     34  N   UNL     1      20.574  -2.576 -19.749  0.00  0.00    -0.333 N 
ATOM     35  C   UNL     1      20.371  -3.688 -18.801  0.00  0.00    +0.086 C 
ATOM     36  C   UNL     1      20.309  -2.959 -21.149  0.00  0.00    +0.086 C 
ATOM     37  C   UNL     1      21.212  -4.915 -19.235  0.00  0.00    -0.060 C 
ATOM     38  C   UNL     1      21.154  -4.196 -21.529  0.00  0.00    -0.060 C 
ATOM     39  N   UNL     1      20.921  -5.341 -20.623  0.00  0.00    +0.380 N 
ATOM     40  C   UNL     1      21.755  -6.475 -21.007  0.00  0.00    -0.096 C 
ATOM     41  H   UNL     1      19.948  -5.640 -20.687  0.00  0.00    -0.082 HD
ENDBRANCH  33  34
ENDBRANCH  27  28
ENDBRANCH  25  27
ENDBRANCH  10  23
TORSDOF 5
ENDMDL
