MODEL 1
REMARK VINA RESULT:   -11.772      0.000      0.000
REMARK INTER + INTRA:         -16.022
REMARK INTER:                 -15.213
REMARK INTRA:                  -0.809
REMARK UNBOUND:                -0.809
REMARK  Name = CTX-1020453
REMARK  6 active torsions:
REMARK  status: ('A' for Active; 'I' for Inactive)
REMARK    1  A    between atoms: C_3  and  C_6
REMARK    2  A    between atoms: C_20  and  C_22
REMARK    3  A    between atoms: N_25  and  C_26
REMARK    4  A    between atoms: C_26  and  C_27
REMARK    5  A    between atoms: C_32  and  N_33
REMARK    6  A    between atoms: N_38  and  C_39
REMARK                            x       y       z     vdW  Elec       q    Type
REMARK                         _______ _______ _______ _____ _____    ______ ____
ROOT
ATOM      1  C   UNL     1      25.863   0.601 -20.110  0.00  0.00    +0.284 C 
ATOM      2  O   UNL     1      26.526   0.376 -19.074  0.00  0.00    -0.267 OA
ATOM      3  N   UNL     1      26.433   1.775 -20.880  0.00  0.00    -0.289 N 
ATOM      4  C   UNL     1      27.682   2.698 -20.512  0.00  0.00    +0.163 C 
ATOM      5  C   UNL     1      25.930   1.892 -22.187  0.00  0.00    +0.113 C 
ATOM      6  C   UNL     1      28.353   3.617 -21.696  0.00  0.00    +0.063 A 
ATOM      7  C   UNL     1      26.387   2.971 -23.151  0.00  0.00    +0.056 C 
ATOM      8  N   UNL     1      29.507   4.417 -21.538  0.00  0.00    -0.245 NA
ATOM      9  C   UNL     1      27.683   3.649 -22.914  0.00  0.00    -0.023 A 
ATOM     10  C   UNL     1      29.928   5.217 -22.627  0.00  0.00    +0.126 A 
ATOM     11  C   UNL     1      28.149   4.431 -23.989  0.00  0.00    +0.008 A 
ATOM     12  C   UNL     1      29.256   5.241 -23.845  0.00  0.00    +0.033 A 
ENDROOT
BRANCH   1  15
ATOM     13 CL   UNL     1      22.956   0.554 -18.350  0.00  0.00    -0.079 Cl
ATOM     14  C   UNL     1      23.348  -0.423 -19.708  0.00  0.00    +0.099 A 
ATOM     15  C   UNL     1      24.571  -0.417 -20.425  0.00  0.00    +0.209 A 
ATOM     16  C   UNL     1      22.368  -1.375 -20.224  0.00  0.00    +0.039 A 
ATOM     17  O   UNL     1      24.336  -1.472 -21.443  0.00  0.00    -0.449 OA
ATOM     18  C   UNL     1      22.965  -2.048 -21.296  0.00  0.00    +0.137 A 
ATOM     19  C   UNL     1      20.996  -1.749 -19.875  0.00  0.00    +0.013 A 
ATOM     20  C   UNL     1      22.156  -3.092 -21.977  0.00  0.00    +0.047 A 
ATOM     21  C   UNL     1      20.222  -2.740 -20.560  0.00  0.00    +0.001 A 
ATOM     22  C   UNL     1      20.802  -3.416 -21.607  0.00  0.00    +0.004 A 
ENDBRANCH   1  15
BRANCH  10  23
ATOM     23  C   UNL     1      31.167   6.162 -22.663  0.00  0.00    +0.263 C 
ATOM     24  O   UNL     1      32.224   5.830 -22.137  0.00  0.00    -0.269 OA
ATOM     25  N   UNL     1      31.053   7.394 -23.295  0.00  0.00    -0.306 N 
ATOM     26  H   UNL     1      30.216   7.622 -23.760  0.00  0.00    +0.149 HD
BRANCH  25  27
ATOM     27  C   UNL     1      32.160   8.364 -23.283  0.00  0.00    +0.140 C 
BRANCH  27  28
ATOM     28  C   UNL     1      33.143   8.110 -24.395  0.00  0.00    -0.030 A 
ATOM     29  C   UNL     1      34.518   8.123 -24.199  0.00  0.00    +0.007 A 
ATOM     30  C   UNL     1      32.679   7.895 -25.708  0.00  0.00    +0.007 A 
ATOM     31  C   UNL     1      35.391   8.080 -25.274  0.00  0.00    +0.023 A 
ATOM     32  C   UNL     1      33.571   7.758 -26.774  0.00  0.00    +0.023 A 
ATOM     33  C   UNL     1      34.952   7.874 -26.601  0.00  0.00    +0.030 A 
BRANCH  33  34
ATOM     34  N   UNL     1      35.827   7.839 -27.646  0.00  0.00    -0.333 N 
ATOM     35  C   UNL     1      37.000   6.948 -27.622  0.00  0.00    +0.086 C 
ATOM     36  C   UNL     1      35.485   8.344 -28.985  0.00  0.00    +0.086 C 
ATOM     37  C   UNL     1      38.195   7.679 -28.248  0.00  0.00    -0.060 C 
ATOM     38  C   UNL     1      36.716   9.034 -29.599  0.00  0.00    -0.060 C 
ATOM     39  N   UNL     1      37.869   8.128 -29.611  0.00  0.00    +0.380 N 
ATOM     40  C   UNL     1      39.034   8.764 -30.216  0.00  0.00    -0.096 C 
ATOM     41  H   UNL     1      37.616   7.316 -30.174  0.00  0.00    -0.082 HD
ENDBRANCH  33  34
ENDBRANCH  27  28
ENDBRANCH  25  27
ENDBRANCH  10  23
TORSDOF 5
ENDMDL
MODEL 2
REMARK VINA RESULT:   -11.241      1.861      2.664
REMARK INTER + INTRA:         -15.337
REMARK INTER:                 -14.832
REMARK INTRA:                  -0.504
REMARK UNBOUND:                -0.809
REMARK  Name = CTX-1020453
REMARK  6 active torsions:
REMARK  status: ('A' for Active; 'I' for Inactive)
REMARK    1  A    between atoms: C_3  and  C_6
REMARK    2  A    between atoms: C_20  and  C_22
REMARK    3  A    between atoms: N_25  and  C_26
REMARK    4  A    between atoms: C_26  and  C_27
REMARK    5  A    between atoms: C_32  and  N_33
REMARK    6  A    between atoms: N_38  and  C_39
REMARK                            x       y       z     vdW  Elec       q    Type
REMARK                         _______ _______ _______ _____ _____    ______ ____
ROOT
ATOM      1  C   UNL     1      25.861   2.646 -23.659  0.00  0.00    +0.284 C 
ATOM      2  O   UNL     1      25.313   3.405 -24.488  0.00  0.00    -0.267 OA
ATOM      3  N   UNL     1      27.252   3.134 -23.307  0.00  0.00    -0.289 N 
ATOM      4  C   UNL     1      28.035   4.406 -23.867  0.00  0.00    +0.163 C 
ATOM      5  C   UNL     1      27.800   2.508 -22.174  0.00  0.00    +0.113 C 
ATOM      6  C   UNL     1      29.337   4.955 -23.030  0.00  0.00    +0.063 A 
ATOM      7  C   UNL     1      29.165   2.865 -21.617  0.00  0.00    +0.056 C 
ATOM      8  N   UNL     1      30.075   6.115 -23.360  0.00  0.00    -0.245 NA
ATOM      9  C   UNL     1      29.768   4.173 -21.964  0.00  0.00    -0.023 A 
ATOM     10  C   UNL     1      31.222   6.426 -22.591  0.00  0.00    +0.126 A 
ATOM     11  C   UNL     1      30.895   4.531 -21.198  0.00  0.00    +0.008 A 
ATOM     12  C   UNL     1      31.645   5.641 -21.523  0.00  0.00    +0.033 A 
ENDROOT
BRANCH   1  15
ATOM     13 CL   UNL     1      25.161   1.988 -20.398  0.00  0.00    -0.079 Cl
ATOM     14  C   UNL     1      24.654   1.072 -21.761  0.00  0.00    +0.099 A 
ATOM     15  C   UNL     1      24.968   1.337 -23.118  0.00  0.00    +0.209 A 
ATOM     16  C   UNL     1      23.815  -0.109 -21.570  0.00  0.00    +0.039 A 
ATOM     17  O   UNL     1      24.295   0.211 -23.815  0.00  0.00    -0.449 OA
ATOM     18  C   UNL     1      23.589  -0.667 -22.834  0.00  0.00    +0.137 A 
ATOM     19  C   UNL     1      23.212  -0.782 -20.419  0.00  0.00    +0.013 A 
ATOM     20  C   UNL     1      22.767  -1.904 -22.891  0.00  0.00    +0.047 A 
ATOM     21  C   UNL     1      22.400  -1.959 -20.496  0.00  0.00    +0.001 A 
ATOM     22  C   UNL     1      22.181  -2.524 -21.729  0.00  0.00    +0.004 A 
ENDBRANCH   1  15
BRANCH  10  23
ATOM     23  C   UNL     1      32.167   7.650 -22.784  0.00  0.00    +0.263 C 
ATOM     24  O   UNL     1      31.862   8.753 -22.343  0.00  0.00    -0.269 OA
ATOM     25  N   UNL     1      33.361   7.474 -23.472  0.00  0.00    -0.306 N 
ATOM     26  H   UNL     1      33.618   6.571 -23.771  0.00  0.00    +0.149 HD
BRANCH  25  27
ATOM     27  C   UNL     1      34.250   8.610 -23.762  0.00  0.00    +0.140 C 
BRANCH  27  28
ATOM     28  C   UNL     1      34.881   8.499 -25.125  0.00  0.00    -0.030 A 
ATOM     29  C   UNL     1      36.256   8.464 -25.315  0.00  0.00    +0.007 A 
ATOM     30  C   UNL     1      34.068   8.475 -26.276  0.00  0.00    +0.007 A 
ATOM     31  C   UNL     1      36.802   8.557 -26.585  0.00  0.00    +0.023 A 
ATOM     32  C   UNL     1      34.630   8.473 -27.554  0.00  0.00    +0.023 A 
ATOM     33  C   UNL     1      36.009   8.544 -27.755  0.00  0.00    +0.030 A 
BRANCH  33  34
ATOM     34  N   UNL     1      36.566   8.641 -28.996  0.00  0.00    -0.333 N 
ATOM     35  C   UNL     1      37.911   8.104 -29.266  0.00  0.00    +0.086 C 
ATOM     36  C   UNL     1      35.769   8.898 -30.206  0.00  0.00    +0.086 C 
ATOM     37  C   UNL     1      38.651   9.063 -30.210  0.00  0.00    -0.060 C 
ATOM     38  C   UNL     1      36.556   9.829 -31.146  0.00  0.00    -0.060 C 
ATOM     39  N   UNL     1      37.878   9.270 -31.445  0.00  0.00    +0.380 N 
ATOM     40  C   UNL     1      38.622  10.131 -32.357  0.00  0.00    -0.096 C 
ATOM     41  H   UNL     1      37.734   8.367 -31.899  0.00  0.00    -0.082 HD
ENDBRANCH  33  34
ENDBRANCH  27  28
ENDBRANCH  25  27
ENDBRANCH  10  23
TORSDOF 5
ENDMDL
MODEL 3
REMARK VINA RESULT:   -10.878      1.565      2.146
REMARK INTER + INTRA:         -14.866
REMARK INTER:                 -14.316
REMARK INTRA:                  -0.550
REMARK UNBOUND:                -0.809
REMARK  Name = CTX-1020453
REMARK  6 active torsions:
REMARK  status: ('A' for Active; 'I' for Inactive)
REMARK    1  A    between atoms: C_3  and  C_6
REMARK    2  A    between atoms: C_20  and  C_22
REMARK    3  A    between atoms: N_25  and  C_26
REMARK    4  A    between atoms: C_26  and  C_27
REMARK    5  A    between atoms: C_32  and  N_33
REMARK    6  A    between atoms: N_38  and  C_39
REMARK                            x       y       z     vdW  Elec       q    Type
REMARK                         _______ _______ _______ _____ _____    ______ ____
ROOT
ATOM      1  C   UNL     1      25.304   1.594 -22.680  0.00  0.00    +0.284 C 
ATOM      2  O   UNL     1      24.908   2.112 -23.747  0.00  0.00    -0.267 OA
ATOM      3  N   UNL     1      26.650   2.153 -22.266  0.00  0.00    -0.289 N 
ATOM      4  C   UNL     1      27.555   3.234 -23.014  0.00  0.00    +0.163 C 
ATOM      5  C   UNL     1      27.008   1.844 -20.942  0.00  0.00    +0.113 C 
ATOM      6  C   UNL     1      28.747   3.980 -22.167  0.00  0.00    +0.063 A 
ATOM      7  C   UNL     1      28.295   2.330 -20.303  0.00  0.00    +0.056 C 
ATOM      8  N   UNL     1      29.570   5.011 -22.672  0.00  0.00    -0.245 NA
ATOM      9  C   UNL     1      28.992   3.501 -20.884  0.00  0.00    -0.023 A 
ATOM     10  C   UNL     1      30.610   5.509 -21.851  0.00  0.00    +0.126 A 
ATOM     11  C   UNL     1      30.014   4.044 -20.080  0.00  0.00    +0.008 A 
ATOM     12  C   UNL     1      30.847   5.029 -20.566  0.00  0.00    +0.033 A 
ENDROOT
BRANCH   1  15
ATOM     13 CL   UNL     1      23.154  -0.442 -24.349  0.00  0.00    -0.079 Cl
ATOM     14  C   UNL     1      23.411  -0.394 -22.651  0.00  0.00    +0.099 A 
ATOM     15  C   UNL     1      24.292   0.473 -21.956  0.00  0.00    +0.209 A 
ATOM     16  C   UNL     1      22.681  -1.313 -21.780  0.00  0.00    +0.039 A 
ATOM     17  O   UNL     1      24.061   0.078 -20.543  0.00  0.00    -0.449 OA
ATOM     18  C   UNL     1      23.061  -1.029 -20.463  0.00  0.00    +0.137 A 
ATOM     19  C   UNL     1      21.703  -2.383 -21.983  0.00  0.00    +0.013 A 
ATOM     20  C   UNL     1      22.426  -1.832 -19.386  0.00  0.00    +0.047 A 
ATOM     21  C   UNL     1      21.121  -3.166 -20.934  0.00  0.00    +0.001 A 
ATOM     22  C   UNL     1      21.477  -2.888 -19.636  0.00  0.00    +0.004 A 
ENDBRANCH   1  15
BRANCH  10  23
ATOM     23  C   UNL     1      31.621   6.638 -22.213  0.00  0.00    +0.263 C 
ATOM     24  O   UNL     1      32.782   6.590 -21.819  0.00  0.00    -0.269 OA
ATOM     25  N   UNL     1      31.185   7.708 -22.984  0.00  0.00    -0.306 N 
ATOM     26  H   UNL     1      30.267   7.705 -23.339  0.00  0.00    +0.149 HD
BRANCH  25  27
ATOM     27  C   UNL     1      32.070   8.846 -23.280  0.00  0.00    +0.140 C 
BRANCH  27  28
ATOM     28  C   UNL     1      33.072   8.516 -24.355  0.00  0.00    -0.030 A 
ATOM     29  C   UNL     1      34.423   8.817 -24.240  0.00  0.00    +0.007 A 
ATOM     30  C   UNL     1      32.642   7.919 -25.557  0.00  0.00    +0.007 A 
ATOM     31  C   UNL     1      35.278   8.677 -25.320  0.00  0.00    +0.023 A 
ATOM     32  C   UNL     1      33.534   7.694 -26.608  0.00  0.00    +0.023 A 
ATOM     33  C   UNL     1      34.871   8.089 -26.540  0.00  0.00    +0.030 A 
BRANCH  33  34
ATOM     34  N   UNL     1      35.728   7.964 -27.593  0.00  0.00    -0.333 N 
ATOM     35  C   UNL     1      36.816   6.971 -27.570  0.00  0.00    +0.086 C 
ATOM     36  C   UNL     1      35.417   8.483 -28.935  0.00  0.00    +0.086 C 
ATOM     37  C   UNL     1      38.065   7.585 -28.218  0.00  0.00    -0.060 C 
ATOM     38  C   UNL     1      36.698   9.053 -29.570  0.00  0.00    -0.060 C 
ATOM     39  N   UNL     1      37.765   8.047 -29.583  0.00  0.00    +0.380 N 
ATOM     40  C   UNL     1      38.976   8.568 -30.207  0.00  0.00    -0.096 C 
ATOM     41  H   UNL     1      37.434   7.255 -30.133  0.00  0.00    -0.082 HD
ENDBRANCH  33  34
ENDBRANCH  27  28
ENDBRANCH  25  27
ENDBRANCH  10  23
TORSDOF 5
ENDMDL
MODEL 4
REMARK VINA RESULT:   -10.155      5.706     15.995
REMARK INTER + INTRA:         -13.932
REMARK INTER:                 -13.081
REMARK INTRA:                  -0.851
REMARK UNBOUND:                -0.809
REMARK  Name = CTX-1020453
REMARK  6 active torsions:
REMARK  status: ('A' for Active; 'I' for Inactive)
REMARK    1  A    between atoms: C_3  and  C_6
REMARK    2  A    between atoms: C_20  and  C_22
REMARK    3  A    between atoms: N_25  and  C_26
REMARK    4  A    between atoms: C_26  and  C_27
REMARK    5  A    between atoms: C_32  and  N_33
REMARK    6  A    between atoms: N_38  and  C_39
REMARK                            x       y       z     vdW  Elec       q    Type
REMARK                         _______ _______ _______ _____ _____    ______ ____
ROOT
ATOM      1  C   UNL     1      39.033  11.067 -29.491  0.00  0.00    +0.284 C 
ATOM      2  O   UNL     1      39.497  11.925 -28.709  0.00  0.00    -0.267 OA
ATOM      3  N   UNL     1      38.072  10.138 -28.778  0.00  0.00    -0.289 N 
ATOM      4  C   UNL     1      37.648  10.130 -27.240  0.00  0.00    +0.163 C 
ATOM      5  C   UNL     1      37.295   9.352 -29.647  0.00  0.00    +0.113 C 
ATOM      6  C   UNL     1      36.291   9.313 -26.805  0.00  0.00    +0.063 A 
ATOM      7  C   UNL     1      36.241   8.378 -29.155  0.00  0.00    +0.056 C 
ATOM      8  N   UNL     1      35.751   9.286 -25.500  0.00  0.00    -0.245 NA
ATOM      9  C   UNL     1      35.684   8.545 -27.792  0.00  0.00    -0.023 A 
ATOM     10  C   UNL     1      34.617   8.476 -25.255  0.00  0.00    +0.126 A 
ATOM     11  C   UNL     1      34.534   7.776 -27.522  0.00  0.00    +0.008 A 
ATOM     12  C   UNL     1      34.010   7.713 -26.249  0.00  0.00    +0.033 A 
ENDROOT
BRANCH   1  15
ATOM     13 CL   UNL     1      37.055  12.025 -32.085  0.00  0.00    -0.079 Cl
ATOM     14  C   UNL     1      38.710  11.571 -32.171  0.00  0.00    +0.099 A 
ATOM     15  C   UNL     1      39.525  11.149 -31.090  0.00  0.00    +0.209 A 
ATOM     16  C   UNL     1      39.405  11.600 -33.456  0.00  0.00    +0.039 A 
ATOM     17  O   UNL     1      40.815  10.865 -31.770  0.00  0.00    -0.449 OA
ATOM     18  C   UNL     1      40.712  11.154 -33.232  0.00  0.00    +0.137 A 
ATOM     19  C   UNL     1      39.043  11.965 -34.827  0.00  0.00    +0.013 A 
ATOM     20  C   UNL     1      41.614  11.078 -34.411  0.00  0.00    +0.047 A 
ATOM     21  C   UNL     1      39.933  11.911 -35.947  0.00  0.00    +0.001 A 
ATOM     22  C   UNL     1      41.216  11.463 -35.742  0.00  0.00    +0.004 A 
ENDBRANCH   1  15
BRANCH  10  23
ATOM     23  C   UNL     1      33.869   8.307 -23.898  0.00  0.00    +0.263 C 
ATOM     24  O   UNL     1      33.607   9.282 -23.202  0.00  0.00    -0.269 OA
ATOM     25  N   UNL     1      33.509   7.031 -23.484  0.00  0.00    -0.306 N 
ATOM     26  H   UNL     1      33.677   6.265 -24.080  0.00  0.00    +0.149 HD
BRANCH  25  27
ATOM     27  C   UNL     1      32.882   6.802 -22.172  0.00  0.00    +0.140 C 
BRANCH  27  28
ATOM     28  C   UNL     1      31.549   6.114 -22.298  0.00  0.00    -0.030 A 
ATOM     29  C   UNL     1      31.181   5.037 -21.503  0.00  0.00    +0.007 A 
ATOM     30  C   UNL     1      30.635   6.529 -23.288  0.00  0.00    +0.007 A 
ATOM     31  C   UNL     1      30.035   4.309 -21.775  0.00  0.00    +0.023 A 
ATOM     32  C   UNL     1      29.435   5.844 -23.492  0.00  0.00    +0.023 A 
ATOM     33  C   UNL     1      29.105   4.698 -22.766  0.00  0.00    +0.030 A 
BRANCH  33  34
ATOM     34  N   UNL     1      27.985   3.965 -23.021  0.00  0.00    -0.333 N 
ATOM     35  C   UNL     1      27.649   2.785 -22.205  0.00  0.00    +0.086 C 
ATOM     36  C   UNL     1      26.859   4.485 -23.814  0.00  0.00    +0.086 C 
ATOM     37  C   UNL     1      27.077   1.692 -23.118  0.00  0.00    -0.060 C 
ATOM     38  C   UNL     1      26.284   3.355 -24.686  0.00  0.00    -0.060 C 
ATOM     39  N   UNL     1      25.913   2.199 -23.863  0.00  0.00    +0.380 N 
ATOM     40  C   UNL     1      25.343   1.132 -24.678  0.00  0.00    -0.096 C 
ATOM     41  H   UNL     1      25.206   2.510 -23.198  0.00  0.00    -0.082 HD
ENDBRANCH  33  34
ENDBRANCH  27  28
ENDBRANCH  25  27
ENDBRANCH  10  23
TORSDOF 5
ENDMDL
MODEL 5
REMARK VINA RESULT:    -9.627      5.077     15.733
REMARK INTER + INTRA:         -13.250
REMARK INTER:                 -12.532
REMARK INTRA:                  -0.717
REMARK UNBOUND:                -0.809
REMARK  Name = CTX-1020453
REMARK  6 active torsions:
REMARK  status: ('A' for Active; 'I' for Inactive)
REMARK    1  A    between atoms: C_3  and  C_6
REMARK    2  A    between atoms: C_20  and  C_22
REMARK    3  A    between atoms: N_25  and  C_26
REMARK    4  A    between atoms: C_26  and  C_27
REMARK    5  A    between atoms: C_32  and  N_33
REMARK    6  A    between atoms: N_38  and  C_39
REMARK                            x       y       z     vdW  Elec       q    Type
REMARK                         _______ _______ _______ _____ _____    ______ ____
ROOT
ATOM      1  C   UNL     1      38.527  10.091 -28.137  0.00  0.00    +0.284 C 
ATOM      2  O   UNL     1      39.172  10.564 -27.176  0.00  0.00    -0.267 OA
ATOM      3  N   UNL     1      37.321   9.310 -27.656  0.00  0.00    -0.289 N 
ATOM      4  C   UNL     1      36.846   9.030 -26.158  0.00  0.00    +0.163 C 
ATOM      5  C   UNL     1      36.398   9.010 -28.673  0.00  0.00    +0.113 C 
ATOM      6  C   UNL     1      35.303   8.531 -25.906  0.00  0.00    +0.063 A 
ATOM      7  C   UNL     1      35.101   8.269 -28.414  0.00  0.00    +0.056 C 
ATOM      8  N   UNL     1      34.721   8.325 -24.635  0.00  0.00    -0.245 NA
ATOM      9  C   UNL     1      34.552   8.232 -27.038  0.00  0.00    -0.023 A 
ATOM     10  C   UNL     1      33.400   7.819 -24.571  0.00  0.00    +0.126 A 
ATOM     11  C   UNL     1      33.227   7.763 -26.938  0.00  0.00    +0.008 A 
ATOM     12  C   UNL     1      32.653   7.526 -25.708  0.00  0.00    +0.033 A 
ENDROOT
BRANCH   1  15
ATOM     13 CL   UNL     1      41.768   9.814 -29.126  0.00  0.00    -0.079 Cl
ATOM     14  C   UNL     1      40.437  10.298 -30.099  0.00  0.00    +0.099 A 
ATOM     15  C   UNL     1      39.090  10.436 -29.677  0.00  0.00    +0.209 A 
ATOM     16  C   UNL     1      40.647  10.615 -31.509  0.00  0.00    +0.039 A 
ATOM     17  O   UNL     1      38.425  10.904 -30.918  0.00  0.00    -0.449 OA
ATOM     18  C   UNL     1      39.411  11.006 -32.037  0.00  0.00    +0.137 A 
ATOM     19  C   UNL     1      41.796  10.615 -32.417  0.00  0.00    +0.013 A 
ATOM     20  C   UNL     1      39.378  11.399 -33.470  0.00  0.00    +0.047 A 
ATOM     21  C   UNL     1      41.741  10.972 -33.802  0.00  0.00    +0.001 A 
ATOM     22  C   UNL     1      40.535  11.369 -34.329  0.00  0.00    +0.004 A 
ENDBRANCH   1  15
BRANCH  10  23
ATOM     23  C   UNL     1      32.578   7.524 -23.280  0.00  0.00    +0.263 C 
ATOM     24  O   UNL     1      33.117   7.533 -22.178  0.00  0.00    -0.269 OA
ATOM     25  N   UNL     1      31.223   7.243 -23.397  0.00  0.00    -0.306 N 
ATOM     26  H   UNL     1      30.794   7.295 -24.282  0.00  0.00    +0.149 HD
BRANCH  25  27
ATOM     27  C   UNL     1      30.416   6.869 -22.224  0.00  0.00    +0.140 C 
BRANCH  27  28
ATOM     28  C   UNL     1      29.562   5.658 -22.491  0.00  0.00    -0.030 A 
ATOM     29  C   UNL     1      28.503   5.669 -23.389  0.00  0.00    +0.007 A 
ATOM     30  C   UNL     1      29.794   4.464 -21.778  0.00  0.00    +0.007 A 
ATOM     31  C   UNL     1      27.622   4.602 -23.465  0.00  0.00    +0.023 A 
ATOM     32  C   UNL     1      28.954   3.359 -21.933  0.00  0.00    +0.023 A 
ATOM     33  C   UNL     1      27.827   3.397 -22.755  0.00  0.00    +0.030 A 
BRANCH  33  34
ATOM     34  N   UNL     1      26.946   2.360 -22.840  0.00  0.00    -0.333 N 
ATOM     35  C   UNL     1      26.782   1.607 -24.096  0.00  0.00    +0.086 C 
ATOM     36  C   UNL     1      26.413   1.671 -21.654  0.00  0.00    +0.086 C 
ATOM     37  C   UNL     1      25.296   1.269 -24.285  0.00  0.00    -0.060 C 
ATOM     38  C   UNL     1      24.936   1.311 -21.893  0.00  0.00    -0.060 C 
ATOM     39  N   UNL     1      24.784   0.526 -23.122  0.00  0.00    +0.380 N 
ATOM     40  C   UNL     1      23.390   0.157 -23.344  0.00  0.00    -0.096 C 
ATOM     41  H   UNL     1      25.330  -0.328 -23.010  0.00  0.00    -0.082 HD
ENDBRANCH  33  34
ENDBRANCH  27  28
ENDBRANCH  25  27
ENDBRANCH  10  23
TORSDOF 5
ENDMDL
