MODEL 1
REMARK VINA RESULT:   -12.426      0.000      0.000
REMARK INTER + INTRA:         -17.647
REMARK INTER:                 -16.784
REMARK INTRA:                  -0.863
REMARK UNBOUND:                -0.863
REMARK  Name = CTX-1019904
REMARK  9 active torsions:
REMARK  status: ('A' for Active; 'I' for Inactive)
REMARK    1  A    between atoms: C_2  and  C_4
REMARK    2  A    between atoms: N_3  and  C_5
REMARK    3  A    between atoms: C_5  and  C_8
REMARK    4  A    between atoms: C_19  and  N_22
REMARK    5  A    between atoms: C_21  and  C_24
REMARK    6  A    between atoms: C_28  and  C_33
REMARK    7  A    between atoms: N_34  and  C_37
REMARK    8  A    between atoms: C_35  and  O_38
REMARK    9  A    between atoms: O_38  and  C_41
REMARK                            x       y       z     vdW  Elec       q    Type
REMARK                         _______ _______ _______ _____ _____    ______ ____
ROOT
ATOM      1  C   UNL     1      27.928   4.101 -23.433  0.00  0.00    +0.126 A 
ATOM      2  N   UNL     1      27.491   2.944 -22.853  0.00  0.00    -0.245 NA
ATOM      3  C   UNL     1      27.430   4.605 -24.629  0.00  0.00    +0.033 A 
ATOM      4  C   UNL     1      26.486   2.287 -23.489  0.00  0.00    +0.063 A 
ATOM      5  C   UNL     1      26.424   3.898 -25.272  0.00  0.00    +0.008 A 
ATOM      6  C   UNL     1      25.940   2.721 -24.705  0.00  0.00    -0.023 A 
ATOM      7  C   UNL     1      25.947   1.053 -22.793  0.00  0.00    +0.163 C 
ATOM      8  C   UNL     1      24.791   2.005 -25.358  0.00  0.00    +0.056 C 
ATOM      9  N   UNL     1      24.682   0.589 -23.330  0.00  0.00    -0.289 N 
ATOM     10  C   UNL     1      24.560   0.615 -24.785  0.00  0.00    +0.113 C 
ATOM     11  C   UNL     1      23.742  -0.158 -22.630  0.00  0.00    +0.283 C 
ATOM     12  O   UNL     1      22.670  -0.417 -23.189  0.00  0.00    -0.267 OA
ENDROOT
BRANCH  11  13
ATOM     13  C   UNL     1      24.007  -0.682 -21.274  0.00  0.00    +0.194 A 
ATOM     14  O   UNL     1      23.845  -2.062 -21.273  0.00  0.00    -0.446 OA
ATOM     15  C   UNL     1      23.545  -0.302 -20.010  0.00  0.00    +0.008 A 
ATOM     16  C   UNL     1      22.678  -2.274 -20.598  0.00  0.00    +0.178 A 
ATOM     17  C   UNL     1      22.419  -1.158 -19.810  0.00  0.00    +0.027 A 
ATOM     18  C   UNL     1      24.121   0.616 -18.998  0.00  0.00    +0.048 C 
ATOM     19  C   UNL     1      21.856  -3.400 -20.683  0.00  0.00    +0.163 A 
ATOM     20  C   UNL     1      21.266  -1.157 -19.007  0.00  0.00    +0.012 A 
ATOM     21  C   UNL     1      20.659  -3.320 -19.966  0.00  0.00    +0.049 A 
ATOM     22  C   UNL     1      20.364  -2.222 -19.147  0.00  0.00    +0.004 A 
BRANCH  19  23
ATOM     23  O   UNL     1      22.058  -4.544 -21.431  0.00  0.00    -0.491 OA
ATOM     24  C   UNL     1      21.688  -5.769 -20.803  0.00  0.00    +0.277 C 
ENDBRANCH  19  23
ENDBRANCH  11  13
BRANCH   1  26
ATOM     25  O   UNL     1      29.560   4.397 -21.750  0.00  0.00    -0.269 OA
ATOM     26  C   UNL     1      28.995   4.873 -22.735  0.00  0.00    +0.263 C 
ATOM     27  N   UNL     1      29.295   6.122 -23.227  0.00  0.00    -0.304 N 
ATOM     28  H   UNL     1      28.831   6.458 -24.028  0.00  0.00    +0.149 HD
BRANCH  27  29
ATOM     29  C   UNL     1      30.286   6.944 -22.578  0.00  0.00    +0.160 C 
BRANCH  29  30
ATOM     30  C   UNL     1      31.483   7.261 -23.443  0.00  0.00    +0.058 A 
ATOM     31  N   UNL     1      31.289   7.456 -24.769  0.00  0.00    -0.256 NA
ATOM     32  C   UNL     1      32.745   7.347 -22.853  0.00  0.00    +0.027 A 
ATOM     33  C   UNL     1      32.390   7.755 -25.505  0.00  0.00    +0.134 A 
ATOM     34  C   UNL     1      33.848   7.660 -23.651  0.00  0.00    +0.026 A 
ATOM     35  C   UNL     1      33.698   7.874 -25.020  0.00  0.00    +0.048 A 
BRANCH  35  36
ATOM     36  N   UNL     1      34.734   8.244 -25.862  0.00  0.00    -0.332 N 
ATOM     37  C   UNL     1      36.123   8.271 -25.379  0.00  0.00    +0.086 C 
ATOM     38  C   UNL     1      34.635   7.844 -27.280  0.00  0.00    +0.086 C 
ATOM     39  C   UNL     1      36.935   9.254 -26.258  0.00  0.00    -0.060 C 
ATOM     40  C   UNL     1      35.484   8.805 -28.147  0.00  0.00    -0.060 C 
ATOM     41  N   UNL     1      36.895   8.905 -27.698  0.00  0.00    +0.380 N 
ATOM     42  C   UNL     1      37.606   9.914 -28.482  0.00  0.00    -0.096 C 
ATOM     43  H   UNL     1      37.352   8.005 -27.838  0.00  0.00    -0.082 HD
ENDBRANCH  35  36
ENDBRANCH  29  30
ENDBRANCH  27  29
ENDBRANCH   1  26
TORSDOF 6
ENDMDL
MODEL 2
REMARK VINA RESULT:   -11.875      3.511      6.599
REMARK INTER + INTRA:         -16.903
REMARK INTER:                 -17.009
REMARK INTRA:                   0.105
REMARK UNBOUND:                -0.863
REMARK  Name = CTX-1019904
REMARK  9 active torsions:
REMARK  status: ('A' for Active; 'I' for Inactive)
REMARK    1  A    between atoms: C_2  and  C_4
REMARK    2  A    between atoms: N_3  and  C_5
REMARK    3  A    between atoms: C_5  and  C_8
REMARK    4  A    between atoms: C_19  and  N_22
REMARK    5  A    between atoms: C_21  and  C_24
REMARK    6  A    between atoms: C_28  and  C_33
REMARK    7  A    between atoms: N_34  and  C_37
REMARK    8  A    between atoms: C_35  and  O_38
REMARK    9  A    between atoms: O_38  and  C_41
REMARK                            x       y       z     vdW  Elec       q    Type
REMARK                         _______ _______ _______ _____ _____    ______ ____
ROOT
ATOM      1  C   UNL     1      24.721   2.936 -16.180  0.00  0.00    +0.126 A 
ATOM      2  N   UNL     1      24.583   2.150 -17.288  0.00  0.00    -0.245 NA
ATOM      3  C   UNL     1      23.652   3.425 -15.438  0.00  0.00    +0.033 A 
ATOM      4  C   UNL     1      23.315   1.815 -17.641  0.00  0.00    +0.063 A 
ATOM      5  C   UNL     1      22.366   3.091 -15.838  0.00  0.00    +0.008 A 
ATOM      6  C   UNL     1      22.183   2.277 -16.954  0.00  0.00    -0.023 A 
ATOM      7  C   UNL     1      23.175   0.870 -18.818  0.00  0.00    +0.163 C 
ATOM      8  C   UNL     1      20.795   1.846 -17.334  0.00  0.00    +0.056 C 
ATOM      9  N   UNL     1      21.852   0.289 -18.944  0.00  0.00    -0.289 N 
ATOM     10  C   UNL     1      20.733   1.199 -18.709  0.00  0.00    +0.113 C 
ATOM     11  C   UNL     1      21.564  -0.919 -19.567  0.00  0.00    +0.283 C 
ATOM     12  O   UNL     1      20.399  -1.331 -19.530  0.00  0.00    -0.267 OA
ENDROOT
BRANCH  11  13
ATOM     13  C   UNL     1      22.590  -1.687 -20.301  0.00  0.00    +0.194 A 
ATOM     14  O   UNL     1      23.766  -0.948 -20.360  0.00  0.00    -0.446 OA
ATOM     15  C   UNL     1      22.568  -2.354 -21.531  0.00  0.00    +0.008 A 
ATOM     16  C   UNL     1      23.849  -0.529 -21.656  0.00  0.00    +0.178 A 
ATOM     17  C   UNL     1      23.065  -1.370 -22.439  0.00  0.00    +0.027 A 
ATOM     18  C   UNL     1      22.286  -3.772 -21.864  0.00  0.00    +0.048 C 
ATOM     19  C   UNL     1      24.573   0.564 -22.138  0.00  0.00    +0.163 A 
ATOM     20  C   UNL     1      23.009  -1.138 -23.824  0.00  0.00    +0.012 A 
ATOM     21  C   UNL     1      24.404   0.839 -23.497  0.00  0.00    +0.049 A 
ATOM     22  C   UNL     1      23.636   0.011 -24.326  0.00  0.00    +0.004 A 
BRANCH  19  23
ATOM     23  O   UNL     1      25.380   1.428 -21.423  0.00  0.00    -0.491 OA
ATOM     24  C   UNL     1      25.642   2.686 -22.041  0.00  0.00    +0.277 C 
ENDBRANCH  19  23
ENDBRANCH  11  13
BRANCH   1  26
ATOM     25  O   UNL     1      26.402   3.219 -14.543  0.00  0.00    -0.269 OA
ATOM     26  C   UNL     1      26.101   3.282 -15.736  0.00  0.00    +0.263 C 
ATOM     27  N   UNL     1      26.994   3.684 -16.703  0.00  0.00    -0.304 N 
ATOM     28  H   UNL     1      26.717   3.703 -17.647  0.00  0.00    +0.149 HD
BRANCH  27  29
ATOM     29  C   UNL     1      28.334   4.075 -16.342  0.00  0.00    +0.160 C 
BRANCH  29  30
ATOM     30  C   UNL     1      29.136   4.647 -17.487  0.00  0.00    +0.058 A 
ATOM     31  N   UNL     1      29.479   3.827 -18.509  0.00  0.00    -0.256 NA
ATOM     32  C   UNL     1      29.494   5.996 -17.461  0.00  0.00    +0.027 A 
ATOM     33  C   UNL     1      30.186   4.387 -19.524  0.00  0.00    +0.134 A 
ATOM     34  C   UNL     1      30.218   6.528 -18.529  0.00  0.00    +0.026 A 
ATOM     35  C   UNL     1      30.591   5.725 -19.606  0.00  0.00    +0.048 A 
BRANCH  35  36
ATOM     36  N   UNL     1      31.258   6.195 -20.726  0.00  0.00    -0.332 N 
ATOM     37  C   UNL     1      32.675   6.583 -20.650  0.00  0.00    +0.086 C 
ATOM     38  C   UNL     1      30.903   5.600 -22.030  0.00  0.00    +0.086 C 
ATOM     39  C   UNL     1      32.974   7.593 -21.785  0.00  0.00    -0.060 C 
ATOM     40  C   UNL     1      31.246   6.598 -23.162  0.00  0.00    -0.060 C 
ATOM     41  N   UNL     1      32.656   7.057 -23.129  0.00  0.00    +0.380 N 
ATOM     42  C   UNL     1      32.880   8.083 -24.147  0.00  0.00    -0.096 C 
ATOM     43  H   UNL     1      33.268   6.266 -23.328  0.00  0.00    -0.082 HD
ENDBRANCH  35  36
ENDBRANCH  29  30
ENDBRANCH  27  29
ENDBRANCH   1  26
TORSDOF 6
ENDMDL
MODEL 3
REMARK VINA RESULT:   -11.620      4.138      6.817
REMARK INTER + INTRA:         -16.558
REMARK INTER:                 -15.906
REMARK INTRA:                  -0.652
REMARK UNBOUND:                -0.863
REMARK  Name = CTX-1019904
REMARK  9 active torsions:
REMARK  status: ('A' for Active; 'I' for Inactive)
REMARK    1  A    between atoms: C_2  and  C_4
REMARK    2  A    between atoms: N_3  and  C_5
REMARK    3  A    between atoms: C_5  and  C_8
REMARK    4  A    between atoms: C_19  and  N_22
REMARK    5  A    between atoms: C_21  and  C_24
REMARK    6  A    between atoms: C_28  and  C_33
REMARK    7  A    between atoms: N_34  and  C_37
REMARK    8  A    between atoms: C_35  and  O_38
REMARK    9  A    between atoms: O_38  and  C_41
REMARK                            x       y       z     vdW  Elec       q    Type
REMARK                         _______ _______ _______ _____ _____    ______ ____
ROOT
ATOM      1  C   UNL     1      26.070   2.667 -15.825  0.00  0.00    +0.126 A 
ATOM      2  N   UNL     1      25.049   2.579 -16.727  0.00  0.00    -0.245 NA
ATOM      3  C   UNL     1      25.885   2.871 -14.462  0.00  0.00    +0.033 A 
ATOM      4  C   UNL     1      23.788   2.664 -16.228  0.00  0.00    +0.063 A 
ATOM      5  C   UNL     1      24.588   2.982 -13.984  0.00  0.00    +0.008 A 
ATOM      6  C   UNL     1      23.517   2.882 -14.870  0.00  0.00    -0.023 A 
ATOM      7  C   UNL     1      22.661   2.477 -17.224  0.00  0.00    +0.163 C 
ATOM      8  C   UNL     1      22.112   2.917 -14.338  0.00  0.00    +0.056 C 
ATOM      9  N   UNL     1      21.370   2.247 -16.603  0.00  0.00    -0.289 N 
ATOM     10  C   UNL     1      21.069   3.071 -15.435  0.00  0.00    +0.113 C 
ATOM     11  C   UNL     1      20.305   1.578 -17.196  0.00  0.00    +0.283 C 
ATOM     12  O   UNL     1      19.289   1.386 -16.519  0.00  0.00    -0.267 OA
ENDROOT
BRANCH  11  13
ATOM     13  C   UNL     1      20.340   1.141 -18.606  0.00  0.00    +0.194 A 
ATOM     14  O   UNL     1      19.280   0.276 -18.847  0.00  0.00    -0.446 OA
ATOM     15  C   UNL     1      21.365   0.626 -19.409  0.00  0.00    +0.008 A 
ATOM     16  C   UNL     1      19.855  -0.957 -18.959  0.00  0.00    +0.178 A 
ATOM     17  C   UNL     1      21.199  -0.786 -19.273  0.00  0.00    +0.027 A 
ATOM     18  C   UNL     1      22.307   1.300 -20.334  0.00  0.00    +0.048 C 
ATOM     19  C   UNL     1      19.230  -2.192 -18.773  0.00  0.00    +0.163 A 
ATOM     20  C   UNL     1      21.997  -1.929 -19.454  0.00  0.00    +0.012 A 
ATOM     21  C   UNL     1      20.073  -3.304 -18.842  0.00  0.00    +0.049 A 
ATOM     22  C   UNL     1      21.429  -3.180 -19.171  0.00  0.00    +0.004 A 
BRANCH  19  23
ATOM     23  O   UNL     1      17.903  -2.435 -18.475  0.00  0.00    -0.491 OA
ATOM     24  C   UNL     1      17.501  -2.129 -17.142  0.00  0.00    +0.277 C 
ENDBRANCH  19  23
ENDBRANCH  11  13
BRANCH   1  26
ATOM     25  O   UNL     1      27.813   1.500 -16.913  0.00  0.00    -0.269 OA
ATOM     26  C   UNL     1      27.465   2.528 -16.331  0.00  0.00    +0.263 C 
ATOM     27  N   UNL     1      28.327   3.576 -16.103  0.00  0.00    -0.304 N 
ATOM     28  H   UNL     1      28.003   4.387 -15.649  0.00  0.00    +0.149 HD
BRANCH  27  29
ATOM     29  C   UNL     1      29.703   3.495 -16.526  0.00  0.00    +0.160 C 
BRANCH  29  30
ATOM     30  C   UNL     1      29.989   4.206 -17.827  0.00  0.00    +0.058 A 
ATOM     31  N   UNL     1      29.793   3.534 -18.988  0.00  0.00    -0.256 NA
ATOM     32  C   UNL     1      30.438   5.527 -17.798  0.00  0.00    +0.027 A 
ATOM     33  C   UNL     1      30.047   4.218 -20.133  0.00  0.00    +0.134 A 
ATOM     34  C   UNL     1      30.682   6.190 -19.002  0.00  0.00    +0.026 A 
ATOM     35  C   UNL     1      30.492   5.542 -20.221  0.00  0.00    +0.048 A 
BRANCH  35  36
ATOM     36  N   UNL     1      30.657   6.153 -21.455  0.00  0.00    -0.332 N 
ATOM     37  C   UNL     1      29.657   5.981 -22.519  0.00  0.00    +0.086 C 
ATOM     38  C   UNL     1      31.282   7.491 -21.474  0.00  0.00    +0.086 C 
ATOM     39  C   UNL     1      30.343   6.219 -23.887  0.00  0.00    -0.060 C 
ATOM     40  C   UNL     1      31.927   7.737 -22.860  0.00  0.00    -0.060 C 
ATOM     41  N   UNL     1      30.980   7.553 -23.986  0.00  0.00    +0.380 N 
ATOM     42  C   UNL     1      31.680   7.684 -25.264  0.00  0.00    -0.096 C 
ATOM     43  H   UNL     1      30.261   8.273 -23.937  0.00  0.00    -0.082 HD
ENDBRANCH  35  36
ENDBRANCH  29  30
ENDBRANCH  27  29
ENDBRANCH   1  26
TORSDOF 6
ENDMDL
MODEL 4
REMARK VINA RESULT:   -11.047      2.379      3.087
REMARK INTER + INTRA:         -15.785
REMARK INTER:                 -15.144
REMARK INTRA:                  -0.641
REMARK UNBOUND:                -0.863
REMARK  Name = CTX-1019904
REMARK  9 active torsions:
REMARK  status: ('A' for Active; 'I' for Inactive)
REMARK    1  A    between atoms: C_2  and  C_4
REMARK    2  A    between atoms: N_3  and  C_5
REMARK    3  A    between atoms: C_5  and  C_8
REMARK    4  A    between atoms: C_19  and  N_22
REMARK    5  A    between atoms: C_21  and  C_24
REMARK    6  A    between atoms: C_28  and  C_33
REMARK    7  A    between atoms: N_34  and  C_37
REMARK    8  A    between atoms: C_35  and  O_38
REMARK    9  A    between atoms: O_38  and  C_41
REMARK                            x       y       z     vdW  Elec       q    Type
REMARK                         _______ _______ _______ _____ _____    ______ ____
ROOT
ATOM      1  C   UNL     1      28.864   4.513 -22.872  0.00  0.00    +0.126 A 
ATOM      2  N   UNL     1      28.416   3.515 -22.054  0.00  0.00    -0.245 NA
ATOM      3  C   UNL     1      28.277   4.841 -24.089  0.00  0.00    +0.033 A 
ATOM      4  C   UNL     1      27.308   2.845 -22.465  0.00  0.00    +0.063 A 
ATOM      5  C   UNL     1      27.164   4.121 -24.496  0.00  0.00    +0.008 A 
ATOM      6  C   UNL     1      26.666   3.105 -23.683  0.00  0.00    -0.023 A 
ATOM      7  C   UNL     1      26.766   1.800 -21.509  0.00  0.00    +0.163 C 
ATOM      8  C   UNL     1      25.410   2.385 -24.086  0.00  0.00    +0.056 C 
ATOM      9  N   UNL     1      25.422   1.358 -21.833  0.00  0.00    -0.289 N 
ATOM     10  C   UNL     1      25.149   1.141 -23.252  0.00  0.00    +0.113 C 
ATOM     11  C   UNL     1      24.515   0.826 -20.926  0.00  0.00    +0.283 C 
ATOM     12  O   UNL     1      23.375   0.564 -21.327  0.00  0.00    -0.267 OA
ENDROOT
BRANCH  11  13
ATOM     13  C   UNL     1      24.888   0.525 -19.528  0.00  0.00    +0.194 A 
ATOM     14  O   UNL     1      23.775   0.046 -18.847  0.00  0.00    -0.446 OA
ATOM     15  C   UNL     1      25.568   1.264 -18.554  0.00  0.00    +0.008 A 
ATOM     16  C   UNL     1      23.409   1.065 -18.018  0.00  0.00    +0.178 A 
ATOM     17  C   UNL     1      24.508   1.897 -17.834  0.00  0.00    +0.027 A 
ATOM     18  C   UNL     1      27.003   1.296 -18.183  0.00  0.00    +0.048 C 
ATOM     19  C   UNL     1      22.148   1.273 -17.454  0.00  0.00    +0.163 A 
ATOM     20  C   UNL     1      24.370   3.017 -16.997  0.00  0.00    +0.012 A 
ATOM     21  C   UNL     1      22.010   2.457 -16.724  0.00  0.00    +0.049 A 
ATOM     22  C   UNL     1      23.094   3.315 -16.500  0.00  0.00    +0.004 A 
BRANCH  19  23
ATOM     23  O   UNL     1      21.021   0.485 -17.581  0.00  0.00    -0.491 OA
ATOM     24  C   UNL     1      20.196   0.391 -16.423  0.00  0.00    +0.277 C 
ENDBRANCH  19  23
ENDBRANCH  11  13
BRANCH   1  26
ATOM     25  O   UNL     1      30.910   4.781 -21.719  0.00  0.00    -0.269 OA
ATOM     26  C   UNL     1      30.048   5.302 -22.427  0.00  0.00    +0.263 C 
ATOM     27  N   UNL     1      30.116   6.618 -22.826  0.00  0.00    -0.304 N 
ATOM     28  H   UNL     1      29.414   6.990 -23.407  0.00  0.00    +0.149 HD
BRANCH  27  29
ATOM     29  C   UNL     1      31.210   7.454 -22.399  0.00  0.00    +0.160 C 
BRANCH  29  30
ATOM     30  C   UNL     1      32.217   7.750 -23.485  0.00  0.00    +0.058 A 
ATOM     31  N   UNL     1      33.470   8.117 -23.123  0.00  0.00    -0.256 NA
ATOM     32  C   UNL     1      31.831   7.635 -24.822  0.00  0.00    +0.027 A 
ATOM     33  C   UNL     1      34.346   8.358 -24.132  0.00  0.00    +0.134 A 
ATOM     34  C   UNL     1      32.768   7.890 -25.825  0.00  0.00    +0.026 A 
ATOM     35  C   UNL     1      34.071   8.266 -25.502  0.00  0.00    +0.048 A 
BRANCH  35  36
ATOM     36  N   UNL     1      35.069   8.478 -26.439  0.00  0.00    -0.332 N 
ATOM     37  C   UNL     1      36.467   8.664 -26.021  0.00  0.00    +0.086 C 
ATOM     38  C   UNL     1      34.954   7.769 -27.730  0.00  0.00    +0.086 C 
ATOM     39  C   UNL     1      37.213   9.457 -27.122  0.00  0.00    -0.060 C 
ATOM     40  C   UNL     1      35.738   8.545 -28.815  0.00  0.00    -0.060 C 
ATOM     41  N   UNL     1      37.153   8.796 -28.447  0.00  0.00    +0.380 N 
ATOM     42  C   UNL     1      37.801   9.631 -29.458  0.00  0.00    -0.096 C 
ATOM     43  H   UNL     1      37.647   7.904 -28.400  0.00  0.00    -0.082 HD
ENDBRANCH  35  36
ENDBRANCH  29  30
ENDBRANCH  27  29
ENDBRANCH   1  26
TORSDOF 6
ENDMDL
MODEL 5
REMARK VINA RESULT:   -10.710      4.047      6.855
REMARK INTER + INTRA:         -15.329
REMARK INTER:                 -14.905
REMARK INTRA:                  -0.424
REMARK UNBOUND:                -0.863
REMARK  Name = CTX-1019904
REMARK  9 active torsions:
REMARK  status: ('A' for Active; 'I' for Inactive)
REMARK    1  A    between atoms: C_2  and  C_4
REMARK    2  A    between atoms: N_3  and  C_5
REMARK    3  A    between atoms: C_5  and  C_8
REMARK    4  A    between atoms: C_19  and  N_22
REMARK    5  A    between atoms: C_21  and  C_24
REMARK    6  A    between atoms: C_28  and  C_33
REMARK    7  A    between atoms: N_34  and  C_37
REMARK    8  A    between atoms: C_35  and  O_38
REMARK    9  A    between atoms: O_38  and  C_41
REMARK                            x       y       z     vdW  Elec       q    Type
REMARK                         _______ _______ _______ _____ _____    ______ ____
ROOT
ATOM      1  C   UNL     1      25.691   2.074 -17.592  0.00  0.00    +0.126 A 
ATOM      2  N   UNL     1      24.370   2.293 -17.861  0.00  0.00    -0.245 NA
ATOM      3  C   UNL     1      26.264   2.237 -16.335  0.00  0.00    +0.033 A 
ATOM      4  C   UNL     1      23.589   2.657 -16.811  0.00  0.00    +0.063 A 
ATOM      5  C   UNL     1      25.448   2.637 -15.288  0.00  0.00    +0.008 A 
ATOM      6  C   UNL     1      24.091   2.855 -15.517  0.00  0.00    -0.023 A 
ATOM      7  C   UNL     1      22.109   2.811 -17.101  0.00  0.00    +0.163 C 
ATOM      8  C   UNL     1      23.194   3.205 -14.364  0.00  0.00    +0.056 C 
ATOM      9  N   UNL     1      21.286   2.870 -15.907  0.00  0.00    -0.289 N 
ATOM     10  C   UNL     1      21.816   3.674 -14.808  0.00  0.00    +0.113 C 
ATOM     11  C   UNL     1      19.943   2.520 -15.843  0.00  0.00    +0.283 C 
ATOM     12  O   UNL     1      19.386   2.546 -14.739  0.00  0.00    -0.267 OA
ENDROOT
BRANCH  11  13
ATOM     13  C   UNL     1      19.165   2.171 -17.049  0.00  0.00    +0.194 A 
ATOM     14  O   UNL     1      18.206   1.220 -16.719  0.00  0.00    -0.446 OA
ATOM     15  C   UNL     1      19.547   1.808 -18.345  0.00  0.00    +0.008 A 
ATOM     16  C   UNL     1      18.664   0.059 -17.272  0.00  0.00    +0.178 A 
ATOM     17  C   UNL     1      19.559   0.380 -18.287  0.00  0.00    +0.027 A 
ATOM     18  C   UNL     1      19.735   2.624 -19.569  0.00  0.00    +0.048 C 
ATOM     19  C   UNL     1      18.325  -1.241 -16.889  0.00  0.00    +0.163 A 
ATOM     20  C   UNL     1      20.151  -0.666 -19.015  0.00  0.00    +0.012 A 
ATOM     21  C   UNL     1      19.019  -2.257 -17.550  0.00  0.00    +0.049 A 
ATOM     22  C   UNL     1      19.916  -1.981 -18.589  0.00  0.00    +0.004 A 
BRANCH  19  23
ATOM     23  O   UNL     1      17.438  -1.631 -15.904  0.00  0.00    -0.491 OA
ATOM     24  C   UNL     1      17.497  -0.890 -14.688  0.00  0.00    +0.277 C 
ENDBRANCH  19  23
ENDBRANCH  11  13
BRANCH   1  26
ATOM     25  O   UNL     1      27.538   0.901 -18.486  0.00  0.00    -0.269 OA
ATOM     26  C   UNL     1      26.567   1.625 -18.711  0.00  0.00    +0.263 C 
ATOM     27  N   UNL     1      26.253   2.067 -19.976  0.00  0.00    -0.304 N 
ATOM     28  H   UNL     1      25.458   2.631 -20.114  0.00  0.00    +0.149 HD
BRANCH  27  29
ATOM     29  C   UNL     1      27.080   1.708 -21.101  0.00  0.00    +0.160 C 
BRANCH  29  30
ATOM     30  C   UNL     1      28.040   2.793 -21.528  0.00  0.00    +0.058 A 
ATOM     31  N   UNL     1      29.209   2.923 -20.857  0.00  0.00    -0.256 NA
ATOM     32  C   UNL     1      27.698   3.623 -22.597  0.00  0.00    +0.027 A 
ATOM     33  C   UNL     1      30.048   3.901 -21.285  0.00  0.00    +0.134 A 
ATOM     34  C   UNL     1      28.594   4.613 -23.004  0.00  0.00    +0.026 A 
ATOM     35  C   UNL     1      29.812   4.782 -22.348  0.00  0.00    +0.048 A 
BRANCH  35  36
ATOM     36  N   UNL     1      30.775   5.703 -22.731  0.00  0.00    -0.332 N 
ATOM     37  C   UNL     1      30.467   6.746 -23.721  0.00  0.00    +0.086 C 
ATOM     38  C   UNL     1      31.725   6.164 -21.698  0.00  0.00    +0.086 C 
ATOM     39  C   UNL     1      31.787   7.200 -24.390  0.00  0.00    -0.060 C 
ATOM     40  C   UNL     1      33.025   6.657 -22.379  0.00  0.00    -0.060 C 
ATOM     41  N   UNL     1      32.787   7.693 -23.414  0.00  0.00    +0.380 N 
ATOM     42  C   UNL     1      34.037   8.027 -24.095  0.00  0.00    -0.096 C 
ATOM     43  H   UNL     1      32.429   8.536 -22.964  0.00  0.00    -0.082 HD
ENDBRANCH  35  36
ENDBRANCH  29  30
ENDBRANCH  27  29
ENDBRANCH   1  26
TORSDOF 6
ENDMDL
