MODEL 1
REMARK VINA RESULT:   -10.410      0.000      0.000
REMARK INTER + INTRA:         -13.654
REMARK INTER:                 -12.844
REMARK INTRA:                  -0.810
REMARK UNBOUND:                -0.810
REMARK  Name = CTX-1019496
REMARK  5 active torsions:
REMARK  status: ('A' for Active; 'I' for Inactive)
REMARK    1  A    between atoms: C_2  and  C_5
REMARK    2  A    between atoms: C_5  and  N_7
REMARK    3  A    between atoms: C_8  and  C_10
REMARK    4  A    between atoms: C_20  and  C_22
REMARK    5  A    between atoms: C_24  and  C_27
REMARK                            x       y       z     vdW  Elec       q    Type
REMARK                         _______ _______ _______ _____ _____    ______ ____
ROOT
ATOM      1  C   UNL     1      24.945   1.022 -23.630  0.00  0.00    +0.126 A 
ATOM      2  N   UNL     1      25.115   1.294 -22.292  0.00  0.00    -0.245 NA
ATOM      3  C   UNL     1      23.967   0.174 -24.130  0.00  0.00    +0.033 A 
ATOM      4  C   UNL     1      24.233   0.705 -21.430  0.00  0.00    +0.063 A 
ATOM      5  C   UNL     1      23.093  -0.429 -23.235  0.00  0.00    +0.008 A 
ATOM      6  C   UNL     1      23.220  -0.168 -21.868  0.00  0.00    -0.023 A 
ATOM      7  C   UNL     1      24.400   1.014 -19.942  0.00  0.00    +0.163 C 
ATOM      8  C   UNL     1      22.216  -0.754 -20.908  0.00  0.00    +0.056 C 
ATOM      9  N   UNL     1      23.238   0.631 -19.144  0.00  0.00    -0.289 N 
ATOM     10  C   UNL     1      22.659  -0.668 -19.451  0.00  0.00    +0.113 C 
ATOM     11  C   UNL     1      22.909   1.338 -17.982  0.00  0.00    +0.283 C 
ATOM     12  O   UNL     1      23.756   1.987 -17.371  0.00  0.00    -0.267 OA
ENDROOT
BRANCH  11  13
ATOM     13  C   UNL     1      21.470   1.475 -17.720  0.00  0.00    +0.194 A 
ATOM     14  O   UNL     1      21.019   0.762 -16.630  0.00  0.00    -0.450 OA
ATOM     15  C   UNL     1      20.378   1.625 -18.577  0.00  0.00    +0.008 A 
ATOM     16  C   UNL     1      20.029  -0.023 -17.115  0.00  0.00    +0.136 A 
ATOM     17  C   UNL     1      19.674   0.400 -18.386  0.00  0.00    +0.024 A 
ATOM     18  C   UNL     1      20.027   2.691 -19.545  0.00  0.00    +0.048 C 
ATOM     19  C   UNL     1      19.512  -1.128 -16.465  0.00  0.00    +0.047 A 
ATOM     20  C   UNL     1      18.775  -0.393 -19.124  0.00  0.00    +0.012 A 
ATOM     21  C   UNL     1      18.656  -1.925 -17.230  0.00  0.00    +0.004 A 
ATOM     22  C   UNL     1      18.313  -1.578 -18.542  0.00  0.00    +0.001 A 
ENDBRANCH  11  13
BRANCH   1  24
ATOM     23  N   UNL     1      25.952   1.135 -25.849  0.00  0.00    -0.305 N 
ATOM     24  C   UNL     1      25.868   1.702 -24.591  0.00  0.00    +0.263 C 
ATOM     25  O   UNL     1      26.516   2.698 -24.261  0.00  0.00    -0.269 OA
ATOM     26  H   UNL     1      25.423   0.331 -26.056  0.00  0.00    +0.149 HD
BRANCH  23  27
ATOM     27  C   UNL     1      26.801   1.703 -26.860  0.00  0.00    +0.148 C 
BRANCH  27  29
ATOM     28  S   UNL     1      26.001   2.300 -29.470  0.00  0.00    -0.079 S 
ATOM     29  C   UNL     1      26.003   2.562 -27.772  0.00  0.00    +0.026 A 
ATOM     30  C   UNL     1      24.884   3.587 -29.652  0.00  0.00    +0.156 A 
ATOM     31  C   UNL     1      25.149   3.602 -27.469  0.00  0.00    +0.123 A 
ATOM     32  N   UNL     1      24.509   4.190 -28.546  0.00  0.00    -0.255 NA
ENDBRANCH  27  29
ENDBRANCH  23  27
ENDBRANCH   1  24
TORSDOF 4
ENDMDL
MODEL 2
REMARK VINA RESULT:   -10.210      1.301      2.030
REMARK INTER + INTRA:         -13.407
REMARK INTER:                 -12.837
REMARK INTRA:                  -0.570
REMARK UNBOUND:                -0.810
REMARK  Name = CTX-1019496
REMARK  5 active torsions:
REMARK  status: ('A' for Active; 'I' for Inactive)
REMARK    1  A    between atoms: C_2  and  C_5
REMARK    2  A    between atoms: C_5  and  N_7
REMARK    3  A    between atoms: C_8  and  C_10
REMARK    4  A    between atoms: C_20  and  C_22
REMARK    5  A    between atoms: C_24  and  C_27
REMARK                            x       y       z     vdW  Elec       q    Type
REMARK                         _______ _______ _______ _____ _____    ______ ____
ROOT
ATOM      1  C   UNL     1      24.748   1.164 -23.757  0.00  0.00    +0.126 A 
ATOM      2  N   UNL     1      24.813   1.337 -22.393  0.00  0.00    -0.245 NA
ATOM      3  C   UNL     1      23.926   0.237 -24.381  0.00  0.00    +0.033 A 
ATOM      4  C   UNL     1      23.982   0.560 -21.637  0.00  0.00    +0.063 A 
ATOM      5  C   UNL     1      23.104  -0.556 -23.592  0.00  0.00    +0.008 A 
ATOM      6  C   UNL     1      23.126  -0.402 -22.204  0.00  0.00    -0.023 A 
ATOM      7  C   UNL     1      24.031   0.757 -20.121  0.00  0.00    +0.163 C 
ATOM      8  C   UNL     1      22.170  -1.202 -21.356  0.00  0.00    +0.056 C 
ATOM      9  N   UNL     1      22.898   0.148 -19.428  0.00  0.00    -0.289 N 
ATOM     10  C   UNL     1      22.524  -1.185 -19.873  0.00  0.00    +0.113 C 
ATOM     11  C   UNL     1      22.415   0.699 -18.235  0.00  0.00    +0.283 C 
ATOM     12  O   UNL     1      23.132   1.401 -17.524  0.00  0.00    -0.267 OA
ENDROOT
BRANCH  11  13
ATOM     13  C   UNL     1      20.961   0.613 -18.051  0.00  0.00    +0.194 A 
ATOM     14  O   UNL     1      20.343   1.824 -17.820  0.00  0.00    -0.450 OA
ATOM     15  C   UNL     1      20.152  -0.364 -17.467  0.00  0.00    +0.008 A 
ATOM     16  C   UNL     1      19.684   1.658 -16.650  0.00  0.00    +0.136 A 
ATOM     17  C   UNL     1      19.643   0.312 -16.320  0.00  0.00    +0.024 A 
ATOM     18  C   UNL     1      19.918  -1.785 -17.817  0.00  0.00    +0.048 C 
ATOM     19  C   UNL     1      19.198   2.690 -15.868  0.00  0.00    +0.047 A 
ATOM     20  C   UNL     1      19.143  -0.047 -15.054  0.00  0.00    +0.012 A 
ATOM     21  C   UNL     1      18.746   2.316 -14.599  0.00  0.00    +0.004 A 
ATOM     22  C   UNL     1      18.742   0.978 -14.190  0.00  0.00    +0.001 A 
ENDBRANCH  11  13
BRANCH   1  24
ATOM     23  N   UNL     1      25.940   1.549 -25.850  0.00  0.00    -0.305 N 
ATOM     24  C   UNL     1      25.612   2.046 -24.602  0.00  0.00    +0.263 C 
ATOM     25  O   UNL     1      26.007   3.139 -24.191  0.00  0.00    -0.269 OA
ATOM     26  H   UNL     1      25.609   0.664 -26.123  0.00  0.00    +0.149 HD
BRANCH  23  27
ATOM     27  C   UNL     1      26.759   2.309 -26.755  0.00  0.00    +0.148 C 
BRANCH  27  29
ATOM     28  S   UNL     1      25.983   2.289 -29.439  0.00  0.00    -0.079 S 
ATOM     29  C   UNL     1      25.920   2.894 -27.832  0.00  0.00    +0.026 A 
ATOM     30  C   UNL     1      24.774   3.415 -29.894  0.00  0.00    +0.156 A 
ATOM     31  C   UNL     1      24.980   3.900 -27.759  0.00  0.00    +0.123 A 
ATOM     32  N   UNL     1      24.325   4.200 -28.941  0.00  0.00    -0.255 NA
ENDBRANCH  27  29
ENDBRANCH  23  27
ENDBRANCH   1  24
TORSDOF 4
ENDMDL
MODEL 3
REMARK VINA RESULT:   -10.111      2.380      3.670
REMARK INTER + INTRA:         -13.285
REMARK INTER:                 -12.689
REMARK INTRA:                  -0.596
REMARK UNBOUND:                -0.810
REMARK  Name = CTX-1019496
REMARK  5 active torsions:
REMARK  status: ('A' for Active; 'I' for Inactive)
REMARK    1  A    between atoms: C_2  and  C_5
REMARK    2  A    between atoms: C_5  and  N_7
REMARK    3  A    between atoms: C_8  and  C_10
REMARK    4  A    between atoms: C_20  and  C_22
REMARK    5  A    between atoms: C_24  and  C_27
REMARK                            x       y       z     vdW  Elec       q    Type
REMARK                         _______ _______ _______ _____ _____    ______ ____
ROOT
ATOM      1  C   UNL     1      26.304   3.065 -22.816  0.00  0.00    +0.126 A 
ATOM      2  N   UNL     1      25.032   2.975 -22.300  0.00  0.00    -0.245 NA
ATOM      3  C   UNL     1      27.413   2.448 -22.253  0.00  0.00    +0.033 A 
ATOM      4  C   UNL     1      24.875   2.199 -21.186  0.00  0.00    +0.063 A 
ATOM      5  C   UNL     1      27.233   1.680 -21.110  0.00  0.00    +0.008 A 
ATOM      6  C   UNL     1      25.955   1.549 -20.562  0.00  0.00    -0.023 A 
ATOM      7  C   UNL     1      23.462   2.076 -20.615  0.00  0.00    +0.163 C 
ATOM      8  C   UNL     1      25.750   0.644 -19.374  0.00  0.00    +0.056 C 
ATOM      9  N   UNL     1      23.325   0.984 -19.655  0.00  0.00    -0.289 N 
ATOM     10  C   UNL     1      24.404   0.851 -18.688  0.00  0.00    +0.113 C 
ATOM     11  C   UNL     1      22.104   0.316 -19.506  0.00  0.00    +0.283 C 
ATOM     12  O   UNL     1      21.044   0.853 -19.823  0.00  0.00    -0.267 OA
ENDROOT
BRANCH  11  13
ATOM     13  C   UNL     1      22.207  -1.121 -19.223  0.00  0.00    +0.194 A 
ATOM     14  O   UNL     1      23.255  -1.753 -19.858  0.00  0.00    -0.450 OA
ATOM     15  C   UNL     1      21.236  -2.097 -18.992  0.00  0.00    +0.008 A 
ATOM     16  C   UNL     1      22.680  -2.759 -20.557  0.00  0.00    +0.136 A 
ATOM     17  C   UNL     1      21.371  -2.934 -20.137  0.00  0.00    +0.024 A 
ATOM     18  C   UNL     1      20.217  -2.236 -17.925  0.00  0.00    +0.048 C 
ATOM     19  C   UNL     1      23.290  -3.449 -21.588  0.00  0.00    +0.047 A 
ATOM     20  C   UNL     1      20.555  -3.825 -20.860  0.00  0.00    +0.012 A 
ATOM     21  C   UNL     1      22.452  -4.295 -22.319  0.00  0.00    +0.004 A 
ATOM     22  C   UNL     1      21.105  -4.462 -21.978  0.00  0.00    +0.001 A 
ENDBRANCH  11  13
BRANCH   1  24
ATOM     23  N   UNL     1      25.637   3.546 -25.112  0.00  0.00    -0.305 N 
ATOM     24  C   UNL     1      26.483   3.866 -24.066  0.00  0.00    +0.263 C 
ATOM     25  O   UNL     1      27.344   4.745 -24.146  0.00  0.00    -0.269 OA
ATOM     26  H   UNL     1      24.976   2.826 -24.999  0.00  0.00    +0.149 HD
BRANCH  23  27
ATOM     27  C   UNL     1      25.709   4.252 -26.362  0.00  0.00    +0.148 C 
BRANCH  27  29
ATOM     28  S   UNL     1      25.193   3.506 -29.004  0.00  0.00    -0.079 S 
ATOM     29  C   UNL     1      25.946   3.297 -27.474  0.00  0.00    +0.026 A 
ATOM     30  C   UNL     1      26.017   2.118 -29.581  0.00  0.00    +0.156 A 
ATOM     31  C   UNL     1      26.772   2.194 -27.517  0.00  0.00    +0.123 A 
ATOM     32  N   UNL     1      26.812   1.517 -28.724  0.00  0.00    -0.255 NA
ENDBRANCH  27  29
ENDBRANCH  23  27
ENDBRANCH   1  24
TORSDOF 4
ENDMDL
MODEL 4
REMARK VINA RESULT:    -9.807      3.444      4.348
REMARK INTER + INTRA:         -12.911
REMARK INTER:                 -12.181
REMARK INTRA:                  -0.729
REMARK UNBOUND:                -0.810
REMARK  Name = CTX-1019496
REMARK  5 active torsions:
REMARK  status: ('A' for Active; 'I' for Inactive)
REMARK    1  A    between atoms: C_2  and  C_5
REMARK    2  A    between atoms: C_5  and  N_7
REMARK    3  A    between atoms: C_8  and  C_10
REMARK    4  A    between atoms: C_20  and  C_22
REMARK    5  A    between atoms: C_24  and  C_27
REMARK                            x       y       z     vdW  Elec       q    Type
REMARK                         _______ _______ _______ _____ _____    ______ ____
ROOT
ATOM      1  C   UNL     1      25.987   2.735 -23.810  0.00  0.00    +0.126 A 
ATOM      2  N   UNL     1      25.774   2.621 -22.455  0.00  0.00    -0.245 NA
ATOM      3  C   UNL     1      25.514   1.827 -24.747  0.00  0.00    +0.033 A 
ATOM      4  C   UNL     1      25.021   1.559 -22.040  0.00  0.00    +0.063 A 
ATOM      5  C   UNL     1      24.767   0.745 -24.301  0.00  0.00    +0.008 A 
ATOM      6  C   UNL     1      24.514   0.600 -22.935  0.00  0.00    -0.023 A 
ATOM      7  C   UNL     1      24.762   1.433 -20.539  0.00  0.00    +0.163 C 
ATOM      8  C   UNL     1      23.630  -0.527 -22.463  0.00  0.00    +0.056 C 
ATOM      9  N   UNL     1      23.692   0.491 -20.220  0.00  0.00    -0.289 N 
ATOM     10  C   UNL     1      23.709  -0.762 -20.959  0.00  0.00    +0.113 C 
ATOM     11  C   UNL     1      22.899   0.674 -19.081  0.00  0.00    +0.283 C 
ATOM     12  O   UNL     1      23.306   1.329 -18.122  0.00  0.00    -0.267 OA
ENDROOT
BRANCH  11  13
ATOM     13  C   UNL     1      21.491   0.283 -19.230  0.00  0.00    +0.194 A 
ATOM     14  O   UNL     1      20.611   1.340 -19.311  0.00  0.00    -0.450 OA
ATOM     15  C   UNL     1      20.768  -0.800 -18.725  0.00  0.00    +0.008 A 
ATOM     16  C   UNL     1      19.721   1.127 -18.314  0.00  0.00    +0.136 A 
ATOM     17  C   UNL     1      19.861  -0.164 -17.828  0.00  0.00    +0.024 A 
ATOM     18  C   UNL     1      20.913  -2.260 -18.928  0.00  0.00    +0.048 C 
ATOM     19  C   UNL     1      18.860   2.084 -17.811  0.00  0.00    +0.047 A 
ATOM     20  C   UNL     1      19.135  -0.522 -16.676  0.00  0.00    +0.012 A 
ATOM     21  C   UNL     1      18.181   1.722 -16.643  0.00  0.00    +0.004 A 
ATOM     22  C   UNL     1      18.334   0.454 -16.073  0.00  0.00    +0.001 A 
ENDBRANCH  11  13
BRANCH   1  24
ATOM     23  N   UNL     1      27.820   4.310 -23.483  0.00  0.00    -0.305 N 
ATOM     24  C   UNL     1      26.763   3.922 -24.285  0.00  0.00    +0.263 C 
ATOM     25  O   UNL     1      26.459   4.513 -25.324  0.00  0.00    -0.269 OA
ATOM     26  H   UNL     1      28.012   3.811 -22.656  0.00  0.00    +0.149 HD
BRANCH  23  27
ATOM     27  C   UNL     1      28.645   5.433 -23.839  0.00  0.00    +0.148 C 
BRANCH  27  29
ATOM     28  S   UNL     1      30.996   6.749 -23.101  0.00  0.00    -0.079 S 
ATOM     29  C   UNL     1      29.852   5.473 -22.975  0.00  0.00    +0.026 A 
ATOM     30  C   UNL     1      31.895   6.047 -21.822  0.00  0.00    +0.156 A 
ATOM     31  C   UNL     1      30.234   4.614 -21.967  0.00  0.00    +0.123 A 
ATOM     32  N   UNL     1      31.405   4.942 -21.307  0.00  0.00    -0.255 NA
ENDBRANCH  27  29
ENDBRANCH  23  27
ENDBRANCH   1  24
TORSDOF 4
ENDMDL
MODEL 5
REMARK VINA RESULT:    -9.715      2.923      3.531
REMARK INTER + INTRA:         -12.796
REMARK INTER:                 -11.940
REMARK INTRA:                  -0.856
REMARK UNBOUND:                -0.810
REMARK  Name = CTX-1019496
REMARK  5 active torsions:
REMARK  status: ('A' for Active; 'I' for Inactive)
REMARK    1  A    between atoms: C_2  and  C_5
REMARK    2  A    between atoms: C_5  and  N_7
REMARK    3  A    between atoms: C_8  and  C_10
REMARK    4  A    between atoms: C_20  and  C_22
REMARK    5  A    between atoms: C_24  and  C_27
REMARK                            x       y       z     vdW  Elec       q    Type
REMARK                         _______ _______ _______ _____ _____    ______ ____
ROOT
ATOM      1  C   UNL     1      25.317   1.918 -23.006  0.00  0.00    +0.126 A 
ATOM      2  N   UNL     1      25.292   2.176 -21.654  0.00  0.00    -0.245 NA
ATOM      3  C   UNL     1      24.592   0.902 -23.613  0.00  0.00    +0.033 A 
ATOM      4  C   UNL     1      24.470   1.390 -20.895  0.00  0.00    +0.063 A 
ATOM      5  C   UNL     1      23.779   0.104 -22.820  0.00  0.00    +0.008 A 
ATOM      6  C   UNL     1      23.711   0.341 -21.446  0.00  0.00    -0.023 A 
ATOM      7  C   UNL     1      24.420   1.680 -19.395  0.00  0.00    +0.163 C 
ATOM      8  C   UNL     1      22.761  -0.469 -20.601  0.00  0.00    +0.056 C 
ATOM      9  N   UNL     1      23.290   1.039 -18.726  0.00  0.00    -0.289 N 
ATOM     10  C   UNL     1      23.028  -0.340 -19.105  0.00  0.00    +0.113 C 
ATOM     11  C   UNL     1      22.706   1.626 -17.598  0.00  0.00    +0.283 C 
ATOM     12  O   UNL     1      23.334   2.416 -16.895  0.00  0.00    -0.267 OA
ENDROOT
BRANCH  11  13
ATOM     13  C   UNL     1      21.252   1.455 -17.486  0.00  0.00    +0.194 A 
ATOM     14  O   UNL     1      20.856   0.575 -16.500  0.00  0.00    -0.450 OA
ATOM     15  C   UNL     1      20.237   1.462 -18.445  0.00  0.00    +0.008 A 
ATOM     16  C   UNL     1      20.097  -0.343 -17.141  0.00  0.00    +0.136 A 
ATOM     17  C   UNL     1      19.784   0.110 -18.413  0.00  0.00    +0.024 A 
ATOM     18  C   UNL     1      19.768   2.517 -19.372  0.00  0.00    +0.048 C 
ATOM     19  C   UNL     1      19.758  -1.581 -16.626  0.00  0.00    +0.047 A 
ATOM     20  C   UNL     1      19.138  -0.777 -19.295  0.00  0.00    +0.012 A 
ATOM     21  C   UNL     1      19.157  -2.461 -17.531  0.00  0.00    +0.004 A 
ATOM     22  C   UNL     1      18.876  -2.076 -18.846  0.00  0.00    +0.001 A 
ENDBRANCH  11  13
BRANCH   1  24
ATOM     23  N   UNL     1      26.902   3.763 -23.183  0.00  0.00    -0.305 N 
ATOM     24  C   UNL     1      26.169   2.804 -23.857  0.00  0.00    +0.263 C 
ATOM     25  O   UNL     1      26.196   2.681 -25.084  0.00  0.00    -0.269 OA
ATOM     26  H   UNL     1      26.834   3.826 -22.203  0.00  0.00    +0.149 HD
BRANCH  23  27
ATOM     27  C   UNL     1      27.764   4.668 -23.893  0.00  0.00    +0.148 C 
BRANCH  27  29
ATOM     28  S   UNL     1      29.521   3.790 -21.906  0.00  0.00    -0.079 S 
ATOM     29  C   UNL     1      29.013   4.893 -23.122  0.00  0.00    +0.026 A 
ATOM     30  C   UNL     1      30.922   4.745 -21.648  0.00  0.00    +0.156 A 
ATOM     31  C   UNL     1      29.948   5.899 -23.247  0.00  0.00    +0.123 A 
ATOM     32  N   UNL     1      31.041   5.815 -22.401  0.00  0.00    -0.255 NA
ENDBRANCH  27  29
ENDBRANCH  23  27
ENDBRANCH   1  24
TORSDOF 4
ENDMDL
