MODEL 1
REMARK VINA RESULT:   -11.477      0.000      0.000
REMARK INTER + INTRA:         -15.674
REMARK INTER:                 -14.831
REMARK INTRA:                  -0.843
REMARK UNBOUND:                -0.843
REMARK  Name = CTX-1019473
REMARK  8 active torsions:
REMARK  status: ('A' for Active; 'I' for Inactive)
REMARK    1  A    between atoms: C_2  and  C_4
REMARK    2  A    between atoms: N_3  and  C_5
REMARK    3  A    between atoms: C_5  and  C_8
REMARK    4  A    between atoms: C_19  and  N_22
REMARK    5  A    between atoms: C_21  and  C_24
REMARK    6  A    between atoms: N_22  and  C_25
REMARK    7  A    between atoms: N_22  and  C_26
REMARK    8  A    between atoms: C_28  and  C_31
REMARK                            x       y       z     vdW  Elec       q    Type
REMARK                         _______ _______ _______ _____ _____    ______ ____
ROOT
ATOM      1  C   UNL     1      28.602   4.879 -22.943  0.00  0.00    +0.126 A 
ATOM      2  N   UNL     1      28.389   3.660 -22.362  0.00  0.00    -0.245 NA
ATOM      3  C   UNL     1      27.875   5.356 -24.025  0.00  0.00    +0.033 A 
ATOM      4  C   UNL     1      27.393   2.883 -22.897  0.00  0.00    +0.063 A 
ATOM      5  C   UNL     1      26.897   4.541 -24.578  0.00  0.00    +0.008 A 
ATOM      6  C   UNL     1      26.654   3.281 -24.025  0.00  0.00    -0.023 A 
ATOM      7  C   UNL     1      27.104   1.537 -22.227  0.00  0.00    +0.163 C 
ATOM      8  C   UNL     1      25.552   2.426 -24.604  0.00  0.00    +0.056 C 
ATOM      9  N   UNL     1      25.833   0.939 -22.651  0.00  0.00    -0.289 N 
ATOM     10  C   UNL     1      25.579   0.988 -24.087  0.00  0.00    +0.113 C 
ATOM     11  C   UNL     1      25.069   0.188 -21.739  0.00  0.00    +0.283 C 
ATOM     12  O   UNL     1      25.568  -0.204 -20.682  0.00  0.00    -0.267 OA
ENDROOT
BRANCH  11  13
ATOM     13  C   UNL     1      23.610   0.087 -22.005  0.00  0.00    +0.194 A 
ATOM     14  O   UNL     1      22.965   1.307 -21.808  0.00  0.00    -0.450 OA
ATOM     15  C   UNL     1      22.687  -0.850 -21.519  0.00  0.00    +0.008 A 
ATOM     16  C   UNL     1      22.349   1.139 -20.613  0.00  0.00    +0.136 A 
ATOM     17  C   UNL     1      22.210  -0.206 -20.338  0.00  0.00    +0.024 A 
ATOM     18  C   UNL     1      22.117  -2.091 -22.088  0.00  0.00    +0.048 C 
ATOM     19  C   UNL     1      21.918   2.171 -19.788  0.00  0.00    +0.047 A 
ATOM     20  C   UNL     1      21.596  -0.601 -19.146  0.00  0.00    +0.012 A 
ATOM     21  C   UNL     1      21.373   1.768 -18.576  0.00  0.00    +0.004 A 
ATOM     22  C   UNL     1      21.220   0.411 -18.245  0.00  0.00    +0.001 A 
ENDBRANCH  11  13
BRANCH   1  24
ATOM     23  O   UNL     1      30.289   5.442 -21.372  0.00  0.00    -0.269 OA
ATOM     24  C   UNL     1      29.682   5.765 -22.388  0.00  0.00    +0.263 C 
ATOM     25  N   UNL     1      29.935   6.935 -23.072  0.00  0.00    -0.306 N 
ATOM     26  H   UNL     1      29.419   7.134 -23.887  0.00  0.00    +0.149 HD
BRANCH  25  27
ATOM     27  C   UNL     1      30.936   7.877 -22.628  0.00  0.00    +0.140 C 
BRANCH  27  28
ATOM     28  C   UNL     1      32.059   8.018 -23.616  0.00  0.00    -0.030 A 
ATOM     29  C   UNL     1      31.866   7.731 -24.968  0.00  0.00    +0.007 A 
ATOM     30  C   UNL     1      33.333   8.418 -23.211  0.00  0.00    +0.007 A 
ATOM     31  C   UNL     1      32.922   7.843 -25.887  0.00  0.00    +0.023 A 
ATOM     32  C   UNL     1      34.382   8.521 -24.141  0.00  0.00    +0.023 A 
ATOM     33  C   UNL     1      34.217   8.235 -25.509  0.00  0.00    +0.029 A 
BRANCH  33  34
ATOM     34  N   UNL     1      35.279   8.285 -26.401  0.00  0.00    -0.336 N 
ATOM     35  C   UNL     1      36.577   8.843 -26.025  0.00  0.00    +0.129 C 
ATOM     36  C   UNL     1      35.102   8.118 -27.841  0.00  0.00    +0.129 C 
ENDBRANCH  33  34
ENDBRANCH  27  28
ENDBRANCH  25  27
ENDBRANCH   1  24
TORSDOF 5
ENDMDL
MODEL 2
REMARK VINA RESULT:   -10.914      3.350      5.818
REMARK INTER + INTRA:         -14.947
REMARK INTER:                 -14.305
REMARK INTRA:                  -0.642
REMARK UNBOUND:                -0.843
REMARK  Name = CTX-1019473
REMARK  8 active torsions:
REMARK  status: ('A' for Active; 'I' for Inactive)
REMARK    1  A    between atoms: C_2  and  C_4
REMARK    2  A    between atoms: N_3  and  C_5
REMARK    3  A    between atoms: C_5  and  C_8
REMARK    4  A    between atoms: C_19  and  N_22
REMARK    5  A    between atoms: C_21  and  C_24
REMARK    6  A    between atoms: N_22  and  C_25
REMARK    7  A    between atoms: N_22  and  C_26
REMARK    8  A    between atoms: C_28  and  C_31
REMARK                            x       y       z     vdW  Elec       q    Type
REMARK                         _______ _______ _______ _____ _____    ______ ____
ROOT
ATOM      1  C   UNL     1      24.549   0.965 -23.531  0.00  0.00    +0.126 A 
ATOM      2  N   UNL     1      24.450   1.163 -22.182  0.00  0.00    -0.245 NA
ATOM      3  C   UNL     1      23.858  -0.022 -24.219  0.00  0.00    +0.033 A 
ATOM      4  C   UNL     1      23.610   0.326 -21.492  0.00  0.00    +0.063 A 
ATOM      5  C   UNL     1      23.042  -0.886 -23.500  0.00  0.00    +0.008 A 
ATOM      6  C   UNL     1      22.921  -0.729 -22.117  0.00  0.00    -0.023 A 
ATOM      7  C   UNL     1      23.445   0.567 -19.989  0.00  0.00    +0.163 C 
ATOM      8  C   UNL     1      21.990  -1.641 -21.354  0.00  0.00    +0.056 C 
ATOM      9  N   UNL     1      22.301  -0.148 -19.410  0.00  0.00    -0.289 N 
ATOM     10  C   UNL     1      22.161  -1.535 -19.838  0.00  0.00    +0.113 C 
ATOM     11  C   UNL     1      21.569   0.430 -18.358  0.00  0.00    +0.283 C 
ATOM     12  O   UNL     1      22.026   1.391 -17.734  0.00  0.00    -0.267 OA
ENDROOT
BRANCH  11  13
ATOM     13  C   UNL     1      20.162  -0.019 -18.188  0.00  0.00    +0.194 A 
ATOM     14  O   UNL     1      19.294   1.060 -18.023  0.00  0.00    -0.450 OA
ATOM     15  C   UNL     1      19.644  -0.988 -17.318  0.00  0.00    +0.008 A 
ATOM     16  C   UNL     1      19.034   1.044 -16.693  0.00  0.00    +0.136 A 
ATOM     17  C   UNL     1      19.307  -0.205 -16.173  0.00  0.00    +0.024 A 
ATOM     18  C   UNL     1      19.290  -2.414 -17.493  0.00  0.00    +0.048 C 
ATOM     19  C   UNL     1      18.560   2.127 -15.963  0.00  0.00    +0.047 A 
ATOM     20  C   UNL     1      19.105  -0.437 -14.810  0.00  0.00    +0.012 A 
ATOM     21  C   UNL     1      18.429   1.906 -14.598  0.00  0.00    +0.004 A 
ATOM     22  C   UNL     1      18.705   0.656 -14.019  0.00  0.00    +0.001 A 
ENDBRANCH  11  13
BRANCH   1  24
ATOM     23  O   UNL     1      25.756   1.570 -25.482  0.00  0.00    -0.269 OA
ATOM     24  C   UNL     1      25.455   1.861 -24.328  0.00  0.00    +0.263 C 
ATOM     25  N   UNL     1      25.918   2.995 -23.697  0.00  0.00    -0.306 N 
ATOM     26  H   UNL     1      25.634   3.177 -22.772  0.00  0.00    +0.149 HD
BRANCH  25  27
ATOM     27  C   UNL     1      26.809   3.923 -24.353  0.00  0.00    +0.140 C 
BRANCH  27  28
ATOM     28  C   UNL     1      27.912   4.388 -23.443  0.00  0.00    -0.030 A 
ATOM     29  C   UNL     1      28.335   5.718 -23.450  0.00  0.00    +0.007 A 
ATOM     30  C   UNL     1      28.559   3.503 -22.580  0.00  0.00    +0.007 A 
ATOM     31  C   UNL     1      29.379   6.147 -22.614  0.00  0.00    +0.023 A 
ATOM     32  C   UNL     1      29.606   3.945 -21.753  0.00  0.00    +0.023 A 
ATOM     33  C   UNL     1      30.057   5.278 -21.742  0.00  0.00    +0.029 A 
BRANCH  33  34
ATOM     34  N   UNL     1      31.131   5.683 -20.962  0.00  0.00    -0.336 N 
ATOM     35  C   UNL     1      30.950   6.185 -19.600  0.00  0.00    +0.129 C 
ATOM     36  C   UNL     1      32.448   5.967 -21.527  0.00  0.00    +0.129 C 
ENDBRANCH  33  34
ENDBRANCH  27  28
ENDBRANCH  25  27
ENDBRANCH   1  24
TORSDOF 5
ENDMDL
MODEL 3
REMARK VINA RESULT:   -10.838      5.367      7.492
REMARK INTER + INTRA:         -14.848
REMARK INTER:                 -14.659
REMARK INTRA:                  -0.189
REMARK UNBOUND:                -0.843
REMARK  Name = CTX-1019473
REMARK  8 active torsions:
REMARK  status: ('A' for Active; 'I' for Inactive)
REMARK    1  A    between atoms: C_2  and  C_4
REMARK    2  A    between atoms: N_3  and  C_5
REMARK    3  A    between atoms: C_5  and  C_8
REMARK    4  A    between atoms: C_19  and  N_22
REMARK    5  A    between atoms: C_21  and  C_24
REMARK    6  A    between atoms: N_22  and  C_25
REMARK    7  A    between atoms: N_22  and  C_26
REMARK    8  A    between atoms: C_28  and  C_31
REMARK                            x       y       z     vdW  Elec       q    Type
REMARK                         _______ _______ _______ _____ _____    ______ ____
ROOT
ATOM      1  C   UNL     1      24.508   0.807 -22.095  0.00  0.00    +0.126 A 
ATOM      2  N   UNL     1      24.220   1.466 -20.933  0.00  0.00    -0.245 NA
ATOM      3  C   UNL     1      23.815  -0.310 -22.541  0.00  0.00    +0.033 A 
ATOM      4  C   UNL     1      23.180   0.978 -20.184  0.00  0.00    +0.063 A 
ATOM      5  C   UNL     1      22.791  -0.814 -21.752  0.00  0.00    +0.008 A 
ATOM      6  C   UNL     1      22.470  -0.180 -20.549  0.00  0.00    -0.023 A 
ATOM      7  C   UNL     1      22.808   1.735 -18.906  0.00  0.00    +0.163 C 
ATOM      8  C   UNL     1      21.320  -0.708 -19.725  0.00  0.00    +0.056 C 
ATOM      9  N   UNL     1      21.504   1.343 -18.359  0.00  0.00    -0.289 N 
ATOM     10  C   UNL     1      21.258  -0.094 -18.326  0.00  0.00    +0.113 C 
ATOM     11  C   UNL     1      20.693   2.298 -17.719  0.00  0.00    +0.283 C 
ATOM     12  O   UNL     1      21.164   3.382 -17.369  0.00  0.00    -0.267 OA
ENDROOT
BRANCH  11  13
ATOM     13  C   UNL     1      19.231   2.029 -17.688  0.00  0.00    +0.194 A 
ATOM     14  O   UNL     1      18.616   2.656 -16.605  0.00  0.00    -0.450 OA
ATOM     15  C   UNL     1      18.557   0.804 -17.779  0.00  0.00    +0.008 A 
ATOM     16  C   UNL     1      18.412   1.637 -15.735  0.00  0.00    +0.136 A 
ATOM     17  C   UNL     1      18.438   0.431 -16.406  0.00  0.00    +0.024 A 
ATOM     18  C   UNL     1      17.905   0.093 -18.901  0.00  0.00    +0.048 C 
ATOM     19  C   UNL     1      18.205   1.787 -14.370  0.00  0.00    +0.047 A 
ATOM     20  C   UNL     1      18.246  -0.754 -15.690  0.00  0.00    +0.012 A 
ATOM     21  C   UNL     1      18.086   0.600 -13.658  0.00  0.00    +0.004 A 
ATOM     22  C   UNL     1      18.117  -0.653 -14.294  0.00  0.00    +0.001 A 
ENDBRANCH  11  13
BRANCH   1  24
ATOM     23  O   UNL     1      26.597   0.583 -23.200  0.00  0.00    -0.269 OA
ATOM     24  C   UNL     1      25.638   1.308 -22.950  0.00  0.00    +0.263 C 
ATOM     25  N   UNL     1      25.535   2.600 -23.419  0.00  0.00    -0.306 N 
ATOM     26  H   UNL     1      24.736   3.130 -23.190  0.00  0.00    +0.149 HD
BRANCH  25  27
ATOM     27  C   UNL     1      26.565   3.200 -24.234  0.00  0.00    +0.140 C 
BRANCH  27  28
ATOM     28  C   UNL     1      26.229   3.149 -25.699  0.00  0.00    -0.030 A 
ATOM     29  C   UNL     1      26.784   2.173 -26.528  0.00  0.00    +0.007 A 
ATOM     30  C   UNL     1      25.372   4.085 -26.278  0.00  0.00    +0.007 A 
ATOM     31  C   UNL     1      26.486   2.139 -27.900  0.00  0.00    +0.023 A 
ATOM     32  C   UNL     1      25.086   4.042 -27.653  0.00  0.00    +0.023 A 
ATOM     33  C   UNL     1      25.634   3.073 -28.514  0.00  0.00    +0.029 A 
BRANCH  33  34
ATOM     34  N   UNL     1      25.388   3.082 -29.880  0.00  0.00    -0.336 N 
ATOM     35  C   UNL     1      26.347   2.537 -30.841  0.00  0.00    +0.129 C 
ATOM     36  C   UNL     1      24.356   3.920 -30.485  0.00  0.00    +0.129 C 
ENDBRANCH  33  34
ENDBRANCH  27  28
ENDBRANCH  25  27
ENDBRANCH   1  24
TORSDOF 5
ENDMDL
MODEL 4
REMARK VINA RESULT:   -10.515      2.997     11.536
REMARK INTER + INTRA:         -14.431
REMARK INTER:                 -14.264
REMARK INTRA:                  -0.167
REMARK UNBOUND:                -0.843
REMARK  Name = CTX-1019473
REMARK  8 active torsions:
REMARK  status: ('A' for Active; 'I' for Inactive)
REMARK    1  A    between atoms: C_2  and  C_4
REMARK    2  A    between atoms: N_3  and  C_5
REMARK    3  A    between atoms: C_5  and  C_8
REMARK    4  A    between atoms: C_19  and  N_22
REMARK    5  A    between atoms: C_21  and  C_24
REMARK    6  A    between atoms: N_22  and  C_25
REMARK    7  A    between atoms: N_22  and  C_26
REMARK    8  A    between atoms: C_28  and  C_31
REMARK                            x       y       z     vdW  Elec       q    Type
REMARK                         _______ _______ _______ _____ _____    ______ ____
ROOT
ATOM      1  C   UNL     1      28.960   3.837 -18.219  0.00  0.00    +0.126 A 
ATOM      2  N   UNL     1      29.236   3.721 -19.552  0.00  0.00    -0.245 NA
ATOM      3  C   UNL     1      29.570   4.762 -17.382  0.00  0.00    +0.033 A 
ATOM      4  C   UNL     1      30.170   4.582 -20.070  0.00  0.00    +0.063 A 
ATOM      5  C   UNL     1      30.541   5.599 -17.914  0.00  0.00    +0.008 A 
ATOM      6  C   UNL     1      30.865   5.507 -19.270  0.00  0.00    -0.023 A 
ATOM      7  C   UNL     1      30.453   4.503 -21.573  0.00  0.00    +0.163 C 
ATOM      8  C   UNL     1      31.886   6.458 -19.847  0.00  0.00    +0.056 C 
ATOM      9  N   UNL     1      31.204   5.657 -22.082  0.00  0.00    -0.289 N 
ATOM     10  C   UNL     1      32.333   6.070 -21.257  0.00  0.00    +0.113 C 
ATOM     11  C   UNL     1      30.957   6.140 -23.380  0.00  0.00    +0.283 C 
ATOM     12  O   UNL     1      30.326   5.457 -24.190  0.00  0.00    -0.267 OA
ENDROOT
BRANCH  11  13
ATOM     13  C   UNL     1      31.291   7.564 -23.645  0.00  0.00    +0.194 A 
ATOM     14  O   UNL     1      31.204   7.869 -25.003  0.00  0.00    -0.450 OA
ATOM     15  C   UNL     1      32.402   8.304 -23.217  0.00  0.00    +0.008 A 
ATOM     16  C   UNL     1      32.502   7.913 -25.391  0.00  0.00    +0.136 A 
ATOM     17  C   UNL     1      33.317   8.111 -24.295  0.00  0.00    +0.024 A 
ATOM     18  C   UNL     1      32.614   9.242 -22.092  0.00  0.00    +0.048 C 
ATOM     19  C   UNL     1      32.945   7.779 -26.701  0.00  0.00    +0.047 A 
ATOM     20  C   UNL     1      34.700   8.189 -24.476  0.00  0.00    +0.012 A 
ATOM     21  C   UNL     1      34.325   7.787 -26.860  0.00  0.00    +0.004 A 
ATOM     22  C   UNL     1      35.196   7.975 -25.774  0.00  0.00    +0.001 A 
ENDBRANCH  11  13
BRANCH   1  24
ATOM     23  O   UNL     1      27.971   2.666 -16.407  0.00  0.00    -0.269 OA
ATOM     24  C   UNL     1      27.941   2.917 -17.608  0.00  0.00    +0.263 C 
ATOM     25  N   UNL     1      26.998   2.383 -18.460  0.00  0.00    -0.306 N 
ATOM     26  H   UNL     1      27.022   2.630 -19.414  0.00  0.00    +0.149 HD
BRANCH  25  27
ATOM     27  C   UNL     1      25.979   1.472 -17.996  0.00  0.00    +0.140 C 
BRANCH  27  28
ATOM     28  C   UNL     1      25.311   0.745 -19.129  0.00  0.00    -0.030 A 
ATOM     29  C   UNL     1      25.919   0.654 -20.382  0.00  0.00    +0.007 A 
ATOM     30  C   UNL     1      24.055   0.158 -18.971  0.00  0.00    +0.007 A 
ATOM     31  C   UNL     1      25.284  -0.007 -21.446  0.00  0.00    +0.023 A 
ATOM     32  C   UNL     1      23.429  -0.498 -20.046  0.00  0.00    +0.023 A 
ATOM     33  C   UNL     1      24.016  -0.600 -21.320  0.00  0.00    +0.029 A 
BRANCH  33  34
ATOM     34  N   UNL     1      23.357  -1.199 -22.385  0.00  0.00    -0.336 N 
ATOM     35  C   UNL     1      23.027  -0.458 -23.602  0.00  0.00    +0.129 C 
ATOM     36  C   UNL     1      22.648  -2.469 -22.255  0.00  0.00    +0.129 C 
ENDBRANCH  33  34
ENDBRANCH  27  28
ENDBRANCH  25  27
ENDBRANCH   1  24
TORSDOF 5
ENDMDL
MODEL 5
REMARK VINA RESULT:   -10.360      3.715     11.883
REMARK INTER + INTRA:         -14.232
REMARK INTER:                 -14.039
REMARK INTRA:                  -0.192
REMARK UNBOUND:                -0.843
REMARK  Name = CTX-1019473
REMARK  8 active torsions:
REMARK  status: ('A' for Active; 'I' for Inactive)
REMARK    1  A    between atoms: C_2  and  C_4
REMARK    2  A    between atoms: N_3  and  C_5
REMARK    3  A    between atoms: C_5  and  C_8
REMARK    4  A    between atoms: C_19  and  N_22
REMARK    5  A    between atoms: C_21  and  C_24
REMARK    6  A    between atoms: N_22  and  C_25
REMARK    7  A    between atoms: N_22  and  C_26
REMARK    8  A    between atoms: C_28  and  C_31
REMARK                            x       y       z     vdW  Elec       q    Type
REMARK                         _______ _______ _______ _____ _____    ______ ____
ROOT
ATOM      1  C   UNL     1      29.100   3.823 -17.782  0.00  0.00    +0.126 A 
ATOM      2  N   UNL     1      29.349   3.649 -19.115  0.00  0.00    -0.245 NA
ATOM      3  C   UNL     1      29.636   4.857 -17.025  0.00  0.00    +0.033 A 
ATOM      4  C   UNL     1      30.177   4.563 -19.716  0.00  0.00    +0.063 A 
ATOM      5  C   UNL     1      30.503   5.749 -17.641  0.00  0.00    +0.008 A 
ATOM      6  C   UNL     1      30.797   5.602 -18.999  0.00  0.00    -0.023 A 
ATOM      7  C   UNL     1      30.425   4.414 -21.220  0.00  0.00    +0.163 C 
ATOM      8  C   UNL     1      31.701   6.610 -19.668  0.00  0.00    +0.056 C 
ATOM      9  N   UNL     1      31.042   5.601 -21.825  0.00  0.00    -0.289 N 
ATOM     10  C   UNL     1      32.145   6.177 -21.065  0.00  0.00    +0.113 C 
ATOM     11  C   UNL     1      30.711   5.972 -23.141  0.00  0.00    +0.283 C 
ATOM     12  O   UNL     1      30.131   5.179 -23.886  0.00  0.00    -0.267 OA
ENDROOT
BRANCH  11  13
ATOM     13  C   UNL     1      30.892   7.402 -23.505  0.00  0.00    +0.194 A 
ATOM     14  O   UNL     1      30.890   7.586 -24.887  0.00  0.00    -0.450 OA
ATOM     15  C   UNL     1      31.863   8.310 -23.059  0.00  0.00    +0.008 A 
ATOM     16  C   UNL     1      32.202   7.765 -25.176  0.00  0.00    +0.136 A 
ATOM     17  C   UNL     1      32.886   8.152 -24.041  0.00  0.00    +0.024 A 
ATOM     18  C   UNL     1      31.860   9.353 -22.009  0.00  0.00    +0.048 C 
ATOM     19  C   UNL     1      32.771   7.587 -26.430  0.00  0.00    +0.047 A 
ATOM     20  C   UNL     1      34.261   8.392 -24.120  0.00  0.00    +0.012 A 
ATOM     21  C   UNL     1      34.149   7.759 -26.481  0.00  0.00    +0.004 A 
ATOM     22  C   UNL     1      34.892   8.142 -25.352  0.00  0.00    +0.001 A 
ENDBRANCH  11  13
BRANCH   1  24
ATOM     23  O   UNL     1      28.430   1.644 -17.124  0.00  0.00    -0.269 OA
ATOM     24  C   UNL     1      28.196   2.848 -17.082  0.00  0.00    +0.263 C 
ATOM     25  N   UNL     1      27.114   3.378 -16.412  0.00  0.00    -0.306 N 
ATOM     26  H   UNL     1      26.985   4.354 -16.408  0.00  0.00    +0.149 HD
BRANCH  25  27
ATOM     27  C   UNL     1      26.164   2.541 -15.717  0.00  0.00    +0.140 C 
BRANCH  27  28
ATOM     28  C   UNL     1      24.814   2.549 -16.377  0.00  0.00    -0.030 A 
ATOM     29  C   UNL     1      23.712   3.133 -15.752  0.00  0.00    +0.007 A 
ATOM     30  C   UNL     1      24.616   1.954 -17.624  0.00  0.00    +0.007 A 
ATOM     31  C   UNL     1      22.447   3.121 -16.361  0.00  0.00    +0.023 A 
ATOM     32  C   UNL     1      23.342   1.945 -18.220  0.00  0.00    +0.023 A 
ATOM     33  C   UNL     1      22.213   2.522 -17.610  0.00  0.00    +0.029 A 
BRANCH  33  34
ATOM     34  N   UNL     1      20.952   2.451 -18.186  0.00  0.00    -0.336 N 
ATOM     35  C   UNL     1      20.735   2.735 -19.605  0.00  0.00    +0.129 C 
ATOM     36  C   UNL     1      19.727   2.435 -17.392  0.00  0.00    +0.129 C 
ENDBRANCH  33  34
ENDBRANCH  27  28
ENDBRANCH  25  27
ENDBRANCH   1  24
TORSDOF 5
ENDMDL
