MODEL 1
REMARK VINA RESULT:   -11.723      0.000      0.000
REMARK INTER + INTRA:         -15.361
REMARK INTER:                 -14.465
REMARK INTRA:                  -0.897
REMARK UNBOUND:                -0.897
REMARK  Name = CTX-1019480
REMARK  5 active torsions:
REMARK  status: ('A' for Active; 'I' for Inactive)
REMARK    1  A    between atoms: C_2  and  C_4
REMARK    2  A    between atoms: N_3  and  C_5
REMARK    3  A    between atoms: C_5  and  C_8
REMARK    4  A    between atoms: C_21  and  C_23
REMARK    5  A    between atoms: C_25  and  C_28
REMARK                            x       y       z     vdW  Elec       q    Type
REMARK                         _______ _______ _______ _____ _____    ______ ____
ROOT
ATOM      1  C   UNL     1      25.092   1.000 -23.599  0.00  0.00    +0.126 A 
ATOM      2  N   UNL     1      25.310   1.292 -22.277  0.00  0.00    -0.245 NA
ATOM      3  C   UNL     1      24.052   0.204 -24.057  0.00  0.00    +0.033 A 
ATOM      4  C   UNL     1      24.421   0.762 -21.374  0.00  0.00    +0.063 A 
ATOM      5  C   UNL     1      23.174  -0.332 -23.133  0.00  0.00    +0.008 A 
ATOM      6  C   UNL     1      23.352  -0.063 -21.774  0.00  0.00    -0.023 A 
ATOM      7  C   UNL     1      24.624   1.059 -19.878  0.00  0.00    +0.163 C 
ATOM      8  C   UNL     1      22.335  -0.598 -20.800  0.00  0.00    +0.056 C 
ATOM      9  N   UNL     1      23.447   0.731 -19.061  0.00  0.00    -0.289 N 
ATOM     10  C   UNL     1      22.802  -0.537 -19.354  0.00  0.00    +0.113 C 
ATOM     11  C   UNL     1      23.144   1.451 -17.901  0.00  0.00    +0.283 C 
ATOM     12  O   UNL     1      24.021   2.020 -17.252  0.00  0.00    -0.267 OA
ENDROOT
BRANCH  11  13
ATOM     13  C   UNL     1      21.712   1.702 -17.684  0.00  0.00    +0.194 A 
ATOM     14  O   UNL     1      21.200   1.160 -16.524  0.00  0.00    -0.450 OA
ATOM     15  C   UNL     1      20.640   1.855 -18.566  0.00  0.00    +0.008 A 
ATOM     16  C   UNL     1      20.133   0.429 -16.926  0.00  0.00    +0.136 A 
ATOM     17  C   UNL     1      19.817   0.734 -18.238  0.00  0.00    +0.024 A 
ATOM     18  C   UNL     1      20.416   2.813 -19.675  0.00  0.00    +0.048 C 
ATOM     19  C   UNL     1      19.521  -0.547 -16.155  0.00  0.00    +0.047 A 
ATOM     20  C   UNL     1      18.856  -0.054 -18.889  0.00  0.00    +0.012 A 
ATOM     21  C   UNL     1      18.608  -1.353 -16.832  0.00  0.00    +0.004 A 
ATOM     22  C   UNL     1      18.301  -1.130 -18.180  0.00  0.00    +0.001 A 
ENDBRANCH  11  13
BRANCH   1  24
ATOM     23  O   UNL     1      26.622   2.624 -24.424  0.00  0.00    -0.269 OA
ATOM     24  C   UNL     1      25.995   1.587 -24.650  0.00  0.00    +0.263 C 
ATOM     25  N   UNL     1      26.090   0.911 -25.844  0.00  0.00    -0.306 N 
ATOM     26  H   UNL     1      25.537   0.109 -25.989  0.00  0.00    +0.149 HD
BRANCH  25  27
ATOM     27  C   UNL     1      26.990   1.355 -26.895  0.00  0.00    +0.140 C 
BRANCH  27  28
ATOM     28  C   UNL     1      26.258   2.110 -27.978  0.00  0.00    -0.030 A 
ATOM     29  C   UNL     1      25.491   3.246 -27.673  0.00  0.00    +0.005 A 
ATOM     30  C   UNL     1      26.343   1.688 -29.308  0.00  0.00    +0.005 A 
ATOM     31  C   UNL     1      24.823   3.953 -28.677  0.00  0.00    +0.000 A 
ATOM     32  C   UNL     1      25.669   2.388 -30.315  0.00  0.00    +0.000 A 
ATOM     33  C   UNL     1      24.916   3.516 -29.998  0.00  0.00    +0.000 A 
ENDBRANCH  27  28
ENDBRANCH  25  27
ENDBRANCH   1  24
TORSDOF 4
ENDMDL
MODEL 2
REMARK VINA RESULT:   -11.512      2.338      3.764
REMARK INTER + INTRA:         -15.101
REMARK INTER:                 -14.488
REMARK INTRA:                  -0.613
REMARK UNBOUND:                -0.897
REMARK  Name = CTX-1019480
REMARK  5 active torsions:
REMARK  status: ('A' for Active; 'I' for Inactive)
REMARK    1  A    between atoms: C_2  and  C_4
REMARK    2  A    between atoms: N_3  and  C_5
REMARK    3  A    between atoms: C_5  and  C_8
REMARK    4  A    between atoms: C_21  and  C_23
REMARK    5  A    between atoms: C_25  and  C_28
REMARK                            x       y       z     vdW  Elec       q    Type
REMARK                         _______ _______ _______ _____ _____    ______ ____
ROOT
ATOM      1  C   UNL     1      26.266   3.011 -22.726  0.00  0.00    +0.126 A 
ATOM      2  N   UNL     1      24.987   2.936 -22.240  0.00  0.00    -0.245 NA
ATOM      3  C   UNL     1      27.355   2.377 -22.145  0.00  0.00    +0.033 A 
ATOM      4  C   UNL     1      24.798   2.170 -21.116  0.00  0.00    +0.063 A 
ATOM      5  C   UNL     1      27.149   1.619 -21.008  0.00  0.00    +0.008 A 
ATOM      6  C   UNL     1      25.863   1.510 -20.474  0.00  0.00    -0.023 A 
ATOM      7  C   UNL     1      23.380   2.056 -20.530  0.00  0.00    +0.163 C 
ATOM      8  C   UNL     1      25.659   0.616 -19.279  0.00  0.00    +0.056 C 
ATOM      9  N   UNL     1      23.244   0.964 -19.557  0.00  0.00    -0.289 N 
ATOM     10  C   UNL     1      24.320   0.836 -18.590  0.00  0.00    +0.113 C 
ATOM     11  C   UNL     1      22.035   0.280 -19.394  0.00  0.00    +0.283 C 
ATOM     12  O   UNL     1      20.957   0.815 -19.651  0.00  0.00    -0.267 OA
ENDROOT
BRANCH  11  13
ATOM     13  C   UNL     1      22.167  -1.167 -19.171  0.00  0.00    +0.194 A 
ATOM     14  O   UNL     1      23.219  -1.759 -19.836  0.00  0.00    -0.450 OA
ATOM     15  C   UNL     1      21.227  -2.171 -18.925  0.00  0.00    +0.008 A 
ATOM     16  C   UNL     1      22.661  -2.786 -20.521  0.00  0.00    +0.136 A 
ATOM     17  C   UNL     1      21.369  -3.005 -20.076  0.00  0.00    +0.024 A 
ATOM     18  C   UNL     1      20.214  -2.320 -17.853  0.00  0.00    +0.048 C 
ATOM     19  C   UNL     1      23.274  -3.445 -21.575  0.00  0.00    +0.047 A 
ATOM     20  C   UNL     1      20.566  -3.906 -20.791  0.00  0.00    +0.012 A 
ATOM     21  C   UNL     1      22.446  -4.296 -22.305  0.00  0.00    +0.004 A 
ATOM     22  C   UNL     1      21.111  -4.502 -21.939  0.00  0.00    +0.001 A 
ENDBRANCH  11  13
BRANCH   1  24
ATOM     23  O   UNL     1      27.540   4.508 -24.065  0.00  0.00    -0.269 OA
ATOM     24  C   UNL     1      26.541   3.792 -23.983  0.00  0.00    +0.263 C 
ATOM     25  N   UNL     1      25.642   3.655 -25.015  0.00  0.00    -0.306 N 
ATOM     26  H   UNL     1      24.838   3.102 -24.884  0.00  0.00    +0.149 HD
BRANCH  25  27
ATOM     27  C   UNL     1      25.855   4.308 -26.295  0.00  0.00    +0.140 C 
BRANCH  27  28
ATOM     28  C   UNL     1      26.022   3.309 -27.414  0.00  0.00    -0.030 A 
ATOM     29  C   UNL     1      25.433   3.528 -28.670  0.00  0.00    +0.005 A 
ATOM     30  C   UNL     1      26.776   2.149 -27.214  0.00  0.00    +0.005 A 
ATOM     31  C   UNL     1      25.597   2.609 -29.710  0.00  0.00    +0.000 A 
ATOM     32  C   UNL     1      26.935   1.223 -28.249  0.00  0.00    +0.000 A 
ATOM     33  C   UNL     1      26.350   1.455 -29.492  0.00  0.00    +0.000 A 
ENDBRANCH  27  28
ENDBRANCH  25  27
ENDBRANCH   1  24
TORSDOF 4
ENDMDL
MODEL 3
REMARK VINA RESULT:   -11.478      1.189      1.839
REMARK INTER + INTRA:         -15.059
REMARK INTER:                 -14.471
REMARK INTRA:                  -0.588
REMARK UNBOUND:                -0.897
REMARK  Name = CTX-1019480
REMARK  5 active torsions:
REMARK  status: ('A' for Active; 'I' for Inactive)
REMARK    1  A    between atoms: C_2  and  C_4
REMARK    2  A    between atoms: N_3  and  C_5
REMARK    3  A    between atoms: C_5  and  C_8
REMARK    4  A    between atoms: C_21  and  C_23
REMARK    5  A    between atoms: C_25  and  C_28
REMARK                            x       y       z     vdW  Elec       q    Type
REMARK                         _______ _______ _______ _____ _____    ______ ____
ROOT
ATOM      1  C   UNL     1      24.879   1.086 -23.790  0.00  0.00    +0.126 A 
ATOM      2  N   UNL     1      24.946   1.256 -22.432  0.00  0.00    -0.245 NA
ATOM      3  C   UNL     1      24.017   0.201 -24.421  0.00  0.00    +0.033 A 
ATOM      4  C   UNL     1      24.086   0.500 -21.673  0.00  0.00    +0.063 A 
ATOM      5  C   UNL     1      23.166  -0.560 -23.642  0.00  0.00    +0.008 A 
ATOM      6  C   UNL     1      23.195  -0.424 -22.252  0.00  0.00    -0.023 A 
ATOM      7  C   UNL     1      24.124   0.652 -20.143  0.00  0.00    +0.163 C 
ATOM      8  C   UNL     1      22.203  -1.212 -21.436  0.00  0.00    +0.056 C 
ATOM      9  N   UNL     1      22.954   0.063 -19.476  0.00  0.00    -0.289 N 
ATOM     10  C   UNL     1      22.542  -1.246 -19.953  0.00  0.00    +0.113 C 
ATOM     11  C   UNL     1      22.452   0.593 -18.283  0.00  0.00    +0.283 C 
ATOM     12  O   UNL     1      23.176   1.209 -17.501  0.00  0.00    -0.267 OA
ENDROOT
BRANCH  11  13
ATOM     13  C   UNL     1      20.986   0.601 -18.177  0.00  0.00    +0.194 A 
ATOM     14  O   UNL     1      20.430   1.845 -17.967  0.00  0.00    -0.450 OA
ATOM     15  C   UNL     1      20.073  -0.338 -17.693  0.00  0.00    +0.008 A 
ATOM     16  C   UNL     1      19.650   1.693 -16.871  0.00  0.00    +0.136 A 
ATOM     17  C   UNL     1      19.496   0.349 -16.581  0.00  0.00    +0.024 A 
ATOM     18  C   UNL     1      19.818  -1.745 -18.083  0.00  0.00    +0.048 C 
ATOM     19  C   UNL     1      19.165   2.744 -16.107  0.00  0.00    +0.047 A 
ATOM     20  C   UNL     1      18.872  -0.003 -15.374  0.00  0.00    +0.012 A 
ATOM     21  C   UNL     1      18.597   2.379 -14.888  0.00  0.00    +0.004 A 
ATOM     22  C   UNL     1      18.478   1.034 -14.515  0.00  0.00    +0.001 A 
ENDBRANCH  11  13
BRANCH   1  24
ATOM     23  O   UNL     1      26.141   3.031 -24.326  0.00  0.00    -0.269 OA
ATOM     24  C   UNL     1      25.757   1.917 -24.688  0.00  0.00    +0.263 C 
ATOM     25  N   UNL     1      26.107   1.372 -25.902  0.00  0.00    -0.306 N 
ATOM     26  H   UNL     1      25.740   0.495 -26.160  0.00  0.00    +0.149 HD
BRANCH  25  27
ATOM     27  C   UNL     1      27.009   2.061 -26.808  0.00  0.00    +0.140 C 
BRANCH  27  28
ATOM     28  C   UNL     1      26.303   2.521 -28.060  0.00  0.00    -0.030 A 
ATOM     29  C   UNL     1      25.406   3.601 -28.025  0.00  0.00    +0.005 A 
ATOM     30  C   UNL     1      26.541   1.878 -29.278  0.00  0.00    +0.005 A 
ATOM     31  C   UNL     1      24.759   4.036 -29.187  0.00  0.00    +0.000 A 
ATOM     32  C   UNL     1      25.889   2.304 -30.440  0.00  0.00    +0.000 A 
ATOM     33  C   UNL     1      25.006   3.380 -30.393  0.00  0.00    +0.000 A 
ENDBRANCH  27  28
ENDBRANCH  25  27
ENDBRANCH   1  24
TORSDOF 4
ENDMDL
MODEL 4
REMARK VINA RESULT:   -10.515      3.005      4.055
REMARK INTER + INTRA:         -13.871
REMARK INTER:                 -12.928
REMARK INTRA:                  -0.942
REMARK UNBOUND:                -0.897
REMARK  Name = CTX-1019480
REMARK  5 active torsions:
REMARK  status: ('A' for Active; 'I' for Inactive)
REMARK    1  A    between atoms: C_2  and  C_4
REMARK    2  A    between atoms: N_3  and  C_5
REMARK    3  A    between atoms: C_5  and  C_8
REMARK    4  A    between atoms: C_21  and  C_23
REMARK    5  A    between atoms: C_25  and  C_28
REMARK                            x       y       z     vdW  Elec       q    Type
REMARK                         _______ _______ _______ _____ _____    ______ ____
ROOT
ATOM      1  C   UNL     1      25.514   2.003 -22.878  0.00  0.00    +0.126 A 
ATOM      2  N   UNL     1      25.498   2.244 -21.529  0.00  0.00    -0.245 NA
ATOM      3  C   UNL     1      24.731   1.045 -23.505  0.00  0.00    +0.033 A 
ATOM      4  C   UNL     1      24.634   1.486 -20.777  0.00  0.00    +0.063 A 
ATOM      5  C   UNL     1      23.875   0.282 -22.732  0.00  0.00    +0.008 A 
ATOM      6  C   UNL     1      23.821   0.490 -21.352  0.00  0.00    -0.023 A 
ATOM      7  C   UNL     1      24.580   1.717 -19.257  0.00  0.00    +0.163 C 
ATOM      8  C   UNL     1      22.824  -0.304 -20.548  0.00  0.00    +0.056 C 
ATOM      9  N   UNL     1      23.405   1.104 -18.622  0.00  0.00    -0.289 N 
ATOM     10  C   UNL     1      23.082  -0.246 -19.050  0.00  0.00    +0.113 C 
ATOM     11  C   UNL     1      22.813   1.668 -17.487  0.00  0.00    +0.283 C 
ATOM     12  O   UNL     1      23.463   2.358 -16.703  0.00  0.00    -0.267 OA
ENDROOT
BRANCH  11  13
ATOM     13  C   UNL     1      21.345   1.608 -17.460  0.00  0.00    +0.194 A 
ATOM     14  O   UNL     1      20.817   0.866 -16.424  0.00  0.00    -0.450 OA
ATOM     15  C   UNL     1      20.383   1.632 -18.472  0.00  0.00    +0.008 A 
ATOM     16  C   UNL     1      19.985  -0.018 -17.024  0.00  0.00    +0.136 A 
ATOM     17  C   UNL     1      19.778   0.344 -18.343  0.00  0.00    +0.024 A 
ATOM     18  C   UNL     1      20.104   2.630 -19.533  0.00  0.00    +0.048 C 
ATOM     19  C   UNL     1      19.499  -1.167 -16.417  0.00  0.00    +0.047 A 
ATOM     20  C   UNL     1      19.092  -0.551 -19.177  0.00  0.00    +0.012 A 
ATOM     21  C   UNL     1      18.866  -2.067 -17.271  0.00  0.00    +0.004 A 
ATOM     22  C   UNL     1      18.691  -1.780 -18.630  0.00  0.00    +0.001 A 
ENDBRANCH  11  13
BRANCH   1  24
ATOM     23  O   UNL     1      26.321   2.724 -24.997  0.00  0.00    -0.269 OA
ATOM     24  C   UNL     1      26.400   2.830 -23.771  0.00  0.00    +0.263 C 
ATOM     25  N   UNL     1      27.272   3.700 -23.158  0.00  0.00    -0.306 N 
ATOM     26  H   UNL     1      27.324   3.716 -22.175  0.00  0.00    +0.149 HD
BRANCH  25  27
ATOM     27  C   UNL     1      28.116   4.594 -23.932  0.00  0.00    +0.140 C 
BRANCH  27  28
ATOM     28  C   UNL     1      29.347   5.009 -23.162  0.00  0.00    -0.030 A 
ATOM     29  C   UNL     1      30.107   6.119 -23.563  0.00  0.00    +0.005 A 
ATOM     30  C   UNL     1      29.742   4.292 -22.029  0.00  0.00    +0.005 A 
ATOM     31  C   UNL     1      31.241   6.511 -22.844  0.00  0.00    +0.000 A 
ATOM     32  C   UNL     1      30.880   4.675 -21.312  0.00  0.00    +0.000 A 
ATOM     33  C   UNL     1      31.622   5.782 -21.718  0.00  0.00    +0.000 A 
ENDBRANCH  27  28
ENDBRANCH  25  27
ENDBRANCH   1  24
TORSDOF 4
ENDMDL
MODEL 5
REMARK VINA RESULT:   -10.497      1.561      2.014
REMARK INTER + INTRA:         -13.849
REMARK INTER:                 -13.293
REMARK INTRA:                  -0.555
REMARK UNBOUND:                -0.897
REMARK  Name = CTX-1019480
REMARK  5 active torsions:
REMARK  status: ('A' for Active; 'I' for Inactive)
REMARK    1  A    between atoms: C_2  and  C_4
REMARK    2  A    between atoms: N_3  and  C_5
REMARK    3  A    between atoms: C_5  and  C_8
REMARK    4  A    between atoms: C_21  and  C_23
REMARK    5  A    between atoms: C_25  and  C_28
REMARK                            x       y       z     vdW  Elec       q    Type
REMARK                         _______ _______ _______ _____ _____    ______ ____
ROOT
ATOM      1  C   UNL     1      25.010   1.268 -22.212  0.00  0.00    +0.126 A 
ATOM      2  N   UNL     1      25.063   1.696 -20.911  0.00  0.00    -0.245 NA
ATOM      3  C   UNL     1      24.001   0.467 -22.725  0.00  0.00    +0.033 A 
ATOM      4  C   UNL     1      24.034   1.304 -20.091  0.00  0.00    +0.063 A 
ATOM      5  C   UNL     1      22.979   0.071 -21.883  0.00  0.00    +0.008 A 
ATOM      6  C   UNL     1      22.986   0.482 -20.548  0.00  0.00    -0.023 A 
ATOM      7  C   UNL     1      24.049   1.757 -18.621  0.00  0.00    +0.163 C 
ATOM      8  C   UNL     1      21.820   0.097 -19.675  0.00  0.00    +0.056 C 
ATOM      9  N   UNL     1      22.757   1.568 -17.946  0.00  0.00    -0.289 N 
ATOM     10  C   UNL     1      22.091   0.301 -18.192  0.00  0.00    +0.113 C 
ATOM     11  C   UNL     1      22.339   2.423 -16.921  0.00  0.00    +0.283 C 
ATOM     12  O   UNL     1      23.150   3.026 -16.219  0.00  0.00    -0.267 OA
ENDROOT
BRANCH  11  13
ATOM     13  C   UNL     1      20.906   2.750 -16.934  0.00  0.00    +0.194 A 
ATOM     14  O   UNL     1      20.317   2.810 -15.689  0.00  0.00    -0.450 OA
ATOM     15  C   UNL     1      19.888   2.482 -17.852  0.00  0.00    +0.008 A 
ATOM     16  C   UNL     1      19.249   1.980 -15.774  0.00  0.00    +0.136 A 
ATOM     17  C   UNL     1      19.013   1.644 -17.095  0.00  0.00    +0.024 A 
ATOM     18  C   UNL     1      19.754   2.818 -19.290  0.00  0.00    +0.048 C 
ATOM     19  C   UNL     1      18.566   1.475 -14.678  0.00  0.00    +0.047 A 
ATOM     20  C   UNL     1      18.063   0.648 -17.366  0.00  0.00    +0.012 A 
ATOM     21  C   UNL     1      17.665   0.451 -14.961  0.00  0.00    +0.004 A 
ATOM     22  C   UNL     1      17.438   0.025 -16.275  0.00  0.00    +0.001 A 
ENDBRANCH  11  13
BRANCH   1  24
ATOM     23  O   UNL     1      26.996   0.935 -23.479  0.00  0.00    -0.269 OA
ATOM     24  C   UNL     1      26.077   1.700 -23.183  0.00  0.00    +0.263 C 
ATOM     25  N   UNL     1      25.964   2.963 -23.717  0.00  0.00    -0.306 N 
ATOM     26  H   UNL     1      25.233   3.550 -23.416  0.00  0.00    +0.149 HD
BRANCH  25  27
ATOM     27  C   UNL     1      26.901   3.447 -24.717  0.00  0.00    +0.140 C 
BRANCH  27  28
ATOM     28  C   UNL     1      26.377   3.248 -26.118  0.00  0.00    -0.030 A 
ATOM     29  C   UNL     1      26.902   2.243 -26.947  0.00  0.00    +0.005 A 
ATOM     30  C   UNL     1      25.352   4.062 -26.608  0.00  0.00    +0.005 A 
ATOM     31  C   UNL     1      26.409   2.050 -28.242  0.00  0.00    +0.000 A 
ATOM     32  C   UNL     1      24.863   3.878 -27.905  0.00  0.00    +0.000 A 
ATOM     33  C   UNL     1      25.389   2.874 -28.715  0.00  0.00    +0.000 A 
ENDBRANCH  27  28
ENDBRANCH  25  27
ENDBRANCH   1  24
TORSDOF 4
ENDMDL
